# Probe 0 (0.023 0.048 0.045)
# Time        0            
0             307.7        
20            307.578      
40            307.613      
60            307.683      
80            307.782      
100           307.907      
120           308.056      
140           308.228      
160           308.421      
180           308.633      
200           308.863      
220           309.111      
240           309.374      
260           309.652      
280           309.945      
300           310.251      
320           310.568      
