# Probe 0 (0.023 0.048 0.045)
# Time        0            
0             307.7        
400           338.383      
800           368.565      
1200          398.886      
1600          429.209      
