# Probe 0 (0.023 0.048 0.045)
# Time        0            
0             307.7        
2             307.763      
4             307.956      
6             308.214      
8             308.498      
10            308.791      
12            309.084      
14            309.375      
16            309.664      
18            309.949      
20            310.232      
22            310.512      
24            310.791      
26            311.068      
28            311.344      
30            311.619      
32            311.893      
34            312.166      
36            312.439      
38            312.711      
40            312.982      
42            313.252      
44            313.522      
46            313.792      
48            314.06       
50            314.329      
52            314.596      
54            314.863      
56            315.13       
58            315.396      
60            315.661      
62            315.926      
64            316.191      
66            316.454      
68            316.718      
70            316.981      
72            317.243      
74            317.506      
76            317.767      
