# Probe 0 (0.023 0.048 0.045)
# Time        0            
0             307.7        
20            307.543      
40            307.532      
60            307.55       
80            307.588      
100           307.643      
120           307.712      
