# Probe 0 (0.023 0.048 0.045)
# Time        0            
0             307.7        
20            307.545      
40            307.533      
60            307.543      
80            307.567      
100           307.601      
120           307.644      
140           307.696      
160           307.756      
180           307.825      
200           307.903      
220           307.99       
240           308.086      
260           308.19       
280           308.304      
300           308.428      
320           308.56       
340           308.701      
360           308.852      
380           309.012      
400           309.18       
420           309.358      
440           309.544      
460           309.738      
480           309.942      
500           310.153      
520           310.373      
540           310.601      
560           310.837      
580           311.081      
600           311.332      
620           311.591      
640           311.857      
660           312.13       
680           312.41       
700           312.698      
720           312.991      
740           313.292      
760           313.599      
780           313.912      
800           314.231      
820           314.557      
840           314.888      
860           315.224      
880           315.567      
900           315.914      
920           316.267      
940           316.625      
960           316.989      
980           317.357      
1000          317.729      
