# Probe 0 (0.023 0.048 0.045)
# Time        0            
0             307.7        
400           311.775      
800           321.169      
1200          333.087      
1600          346.234      
