# Probe 0 (0.005 0.048 0.051)
# Time        0            
0             307.7        
20            307.95       
40            308.375      
60            308.823      
80            309.276      
100           309.733      
120           310.19       
140           310.649      
160           311.108      
180           311.567      
200           312.025      
220           312.483      
240           312.941      
260           313.397      
280           313.853      
300           314.309      
320           314.763      
340           315.216      
360           315.669      
380           316.121      
400           316.572      
420           317.022      
440           317.471      
460           317.92       
480           318.367      
500           318.814      
520           319.26       
540           319.706      
560           320.15       
580           320.595      
600           321.038      
620           321.481      
640           321.923      
660           322.365      
680           322.806      
700           323.246      
720           323.687      
740           324.126      
760           324.565      
780           325.004      
800           325.442      
820           325.88       
840           326.317      
860           326.754      
880           327.19       
900           327.626      
920           328.062      
940           328.497      
960           328.933      
980           329.367      
1000          329.802      
