# Probe 0 (0.023 0.048 0.045)
# Time        0            
0             307.7        
400           316.492      
800           334.711      
