# Probe 0 (0.023 0.048 0.045)
# Time        0            
0             307.7        
1             307.708      
2             307.763      
3             307.846      
4             307.95       
5             308.066      
6             308.187      
7             308.311      
8             308.433      
9             308.553      
10            308.669      
11            308.781      
12            308.888      
13            308.992      
14            309.091      
15            309.187      
16            309.279      
17            309.367      
18            309.453      
19            309.535      
20            309.615      
21            309.693      
22            309.769      
23            309.843      
24            309.915      
25            309.985      
26            310.054      
27            310.122      
28            310.189      
29            310.254      
30            310.319      
31            310.382      
32            310.445      
33            310.507      
34            310.568      
35            310.629      
36            310.689      
37            310.749      
38            310.808      
39            310.866      
40            310.924      
41            310.982      
42            311.039      
43            311.096      
44            311.153      
45            311.209      
46            311.265      
47            311.321      
48            311.377      
49            311.432      
50            311.487      
51            311.542      
52            311.597      
53            311.651      
54            311.706      
55            311.76       
56            311.814      
57            311.868      
58            311.922      
59            311.976      
60            312.029      
61            312.083      
62            312.136      
63            312.189      
64            312.243      
65            312.296      
66            312.349      
67            312.402      
68            312.455      
69            312.508      
70            312.561      
71            312.614      
72            312.666      
73            312.719      
74            312.772      
75            312.824      
76            312.877      
77            312.93       
78            312.982      
79            313.035      
80            313.087      
81            313.14       
82            313.192      
83            313.245      
84            313.297      
85            313.35       
86            313.402      
87            313.455      
88            313.507      
89            313.559      
90            313.612      
91            313.664      
92            313.717      
93            313.769      
94            313.821      
95            313.874      
96            313.926      
97            313.978      
98            314.031      
99            314.083      
100           314.136      
