# Probe 0 (0.023 0.048 0.045)
# Time        0            
0             307.7        
20            307.55       
40            307.553      
60            307.589      
80            307.646      
100           307.721      
120           307.811      
