# Probe 0 (0.023 0.048 0.045)
# Time        0            
0             307.7        
20            308.295      
40            308.601      
60            308.933      
80            309.302      
100           309.699      
120           310.118      
140           310.551      
160           310.995      
180           311.446      
200           311.902      
220           312.361      
240           312.822      
260           313.285      
280           313.749      
300           314.213      
320           314.676      
340           315.14       
360           315.603      
380           316.066      
400           316.527      
420           316.989      
440           317.449      
460           317.908      
480           318.367      
500           318.825      
520           319.282      
540           319.739      
560           320.194      
580           320.649      
600           321.103      
620           321.556      
640           322.009      
660           322.461      
680           322.912      
700           323.363      
720           323.813      
740           324.262      
760           324.711      
780           325.159      
800           325.607      
820           326.054      
840           326.5        
860           326.946      
880           327.392      
900           327.837      
920           328.282      
940           328.726      
960           329.17       
980           329.613      
1000          330.056      
