# Probe 0 (0.014 -0.035 0.032)
# Time        0            
0             314.5        
20            315.925      
40            317.361      
60            318.554      
80            319.576      
100           320.47       
120           321.269      
140           321.995      
160           322.665      
180           323.292      
200           323.885      
220           324.452      
240           324.998      
260           325.529      
280           326.047      
300           326.554      
320           327.054      
340           327.547      
360           328.035      
380           328.518      
400           328.997      
420           329.474      
440           329.948      
460           330.419      
480           330.889      
500           331.356      
520           331.823      
540           332.287      
560           332.75       
580           333.212      
600           333.673      
620           334.133      
640           334.592      
660           335.049      
680           335.506      
700           335.962      
720           336.417      
740           336.871      
760           337.325      
780           337.778      
800           338.23       
820           338.681      
840           339.132      
860           339.582      
880           340.031      
900           340.48       
920           340.928      
940           341.376      
960           341.823      
980           342.269      
1000          342.715      
