# Probe 0 (0.014 -0.035 0.032)
# Time        0            
0             314.5        
3600          583.101      
