# Probe 0 (0.014 -0.035 0.032)
# Time        0            
0             314.5        
2             314.512      
4             314.487      
6             314.588      
8             314.76       
10            314.975      
12            315.215      
14            315.471      
16            315.736      
18            316.007      
20            316.282      
22            316.558      
24            316.834      
26            317.111      
28            317.387      
30            317.663      
32            317.937      
34            318.211      
36            318.483      
38            318.755      
40            319.026      
42            319.295      
44            319.564      
46            319.832      
48            320.098      
50            320.365      
52            320.63       
54            320.895      
56            321.159      
58            321.422      
60            321.685      
62            321.947      
64            322.208      
66            322.47       
68            322.73       
70            322.99       
72            323.25       
74            323.51       
76            323.769      
