# Probe 0 (0.014 -0.035 0.032)
# Time        0            
0             314.5        
20            316.524      
40            318.562      
60            320.309      
80            321.853      
100           323.252      
120           324.543      
140           325.75       
160           326.891      
180           327.977      
200           329.016      
220           330.014      
240           330.975      
260           331.903      
280           332.801      
300           333.671      
320           334.515      
