# Probe 0 (0.014 -0.035 0.032)
# Time        0            
0             314.5        
20            318.25       
40            321.837      
60            325.28       
80            328.587      
100           331.767      
120           334.828      
140           337.777      
160           340.62       
180           343.363      
200           346.013      
220           348.573      
240           351.049      
260           353.446      
280           355.767      
300           358.017      
320           360.199      
340           362.316      
360           364.372      
380           366.369      
400           368.31       
420           370.199      
440           372.036      
460           373.826      
480           375.569      
500           377.268      
520           378.924      
540           380.541      
560           382.118      
580           383.658      
600           385.163      
620           386.634      
640           388.072      
660           389.478      
680           390.854      
700           392.202      
720           393.521      
740           394.814      
760           396.081      
780           397.323      
800           398.541      
820           399.736      
840           400.91       
860           402.062      
880           403.193      
900           404.305      
920           405.397      
940           406.472      
960           407.528      
980           408.568      
1000          409.591      
