# Probe 0 (0.014 -0.035 0.032)
# Time        0            
0             314.5        
400           341.436      
800           371.594      
1200          401.906      
1600          432.222      
