# Probe 0 (0.014 -0.035 0.032)
# Time        0            
0             314.5        
20            315.976      
40            317.548      
60            318.932      
80            320.192      
100           321.367      
120           322.481      
