# Probe 0 (0.014 -0.035 0.032)
# Time        0            
0             314.5        
1             314.214      
2             313.796      
3             313.476      
4             313.228      
5             313.036      
6             312.886      
7             312.768      
8             312.677      
9             312.607      
10            312.553      
11            312.514      
12            312.486      
13            312.468      
14            312.458      
15            312.455      
16            312.457      
17            312.465      
18            312.477      
19            312.492      
20            312.511      
21            312.533      
22            312.557      
23            312.584      
24            312.612      
25            312.643      
26            312.674      
27            312.707      
28            312.742      
29            312.777      
30            312.814      
31            312.852      
32            312.89       
33            312.929      
34            312.969      
35            313.01       
36            313.051      
37            313.093      
38            313.135      
39            313.178      
40            313.221      
41            313.264      
42            313.308      
43            313.353      
44            313.397      
45            313.442      
46            313.487      
47            313.533      
48            313.579      
49            313.625      
50            313.671      
51            313.718      
52            313.764      
53            313.811      
54            313.858      
55            313.906      
56            313.953      
57            314.001      
58            314.049      
59            314.097      
60            314.145      
61            314.193      
62            314.241      
63            314.29       
64            314.338      
65            314.387      
66            314.436      
67            314.485      
68            314.534      
69            314.583      
70            314.632      
71            314.681      
72            314.731      
73            314.78       
74            314.83       
75            314.879      
76            314.929      
77            314.979      
78            315.029      
79            315.079      
80            315.129      
81            315.179      
82            315.229      
83            315.279      
84            315.329      
85            315.379      
86            315.43       
87            315.48       
88            315.531      
89            315.581      
90            315.632      
91            315.682      
92            315.733      
93            315.784      
94            315.834      
95            315.885      
96            315.936      
97            315.987      
98            316.038      
99            316.089      
100           316.139      
