# Probe 0 (0.005 -0.036 0.033)
# Time        0            
0             314.5        
20            314.481      
40            315.062      
60            315.652      
80            316.22       
100           316.766      
120           317.293      
140           317.807      
160           318.31       
180           318.804      
200           319.291      
220           319.773      
240           320.25       
260           320.724      
280           321.194      
300           321.662      
320           322.128      
340           322.592      
360           323.053      
380           323.514      
400           323.972      
420           324.43       
440           324.886      
460           325.341      
480           325.795      
500           326.247      
520           326.699      
540           327.15       
560           327.6        
580           328.049      
600           328.497      
620           328.944      
640           329.391      
660           329.836      
680           330.281      
700           330.726      
720           331.17       
740           331.613      
760           332.055      
780           332.497      
800           332.938      
820           333.379      
840           333.819      
860           334.259      
880           334.698      
900           335.137      
920           335.575      
940           336.013      
960           336.451      
980           336.888      
1000          337.324      
