# Probe 0 (0.014 -0.035 0.032)
# Time        0            
0             314.5        
20            315.512      
40            316.775      
60            317.944      
80            319.047      
100           320.101      
120           321.12       
