# Probe 0 (0.014 -0.035 0.032)
# Time        0            
0             314.5        
400           344.304      
800           365.37       
1200          383.031      
1600          399.069      
