# Probe 0 (0.015 -0.017 0.04)
# Time        0            
0             310.3        
20            310.343      
40            310.976      
60            311.762      
80            312.627      
100           313.529      
120           314.442      
140           315.352      
160           316.249      
180           317.128      
200           317.988      
220           318.827      
240           319.646      
260           320.444      
280           321.223      
300           321.984      
320           322.728      
