# Probe 0 (0.015 -0.017 0.04)
# Time        0            
0             310.3        
400           335.546      
800           355.838      
1200          373.135      
1600          388.994      
