# Probe 0 (0.015 -0.017 0.04)
# Time        0            
0             310.3        
20            308.901      
40            309.175      
60            309.534      
80            309.934      
100           310.359      
120           310.8        
140           311.251      
160           311.71       
180           312.173      
200           312.64       
220           313.108      
240           313.578      
260           314.049      
280           314.519      
300           314.99       
320           315.46       
340           315.929      
360           316.398      
380           316.865      
400           317.332      
420           317.798      
440           318.263      
460           318.726      
480           319.189      
500           319.651      
520           320.112      
540           320.572      
560           321.031      
580           321.489      
600           321.946      
620           322.402      
640           322.858      
660           323.313      
680           323.767      
700           324.22       
720           324.672      
740           325.124      
760           325.575      
780           326.025      
800           326.475      
820           326.924      
840           327.373      
860           327.821      
880           328.268      
900           328.715      
920           329.162      
940           329.608      
960           330.053      
980           330.498      
1000          330.942      
