# Probe 0 (0.015 -0.017 0.04)
# Time        0            
0             310.3        
400           340.157      
800           370.308      
1200          400.616      
1600          430.93       
