# Probe 0 (0.015 -0.017 0.04)
# Time        0            
0             310.3        
3600          581.798      
