# Probe 0 (0.015 -0.017 0.04)
# Time        0            
0             310.3        
2             311.29       
4             311.588      
6             311.888      
8             312.181      
10            312.47       
12            312.756      
14            313.038      
16            313.318      
18            313.597      
20            313.874      
22            314.149      
24            314.423      
26            314.695      
28            314.967      
30            315.237      
32            315.506      
34            315.774      
36            316.042      
38            316.308      
40            316.573      
42            316.838      
44            317.102      
46            317.366      
48            317.628      
50            317.891      
52            318.152      
54            318.413      
56            318.674      
58            318.934      
60            319.194      
62            319.454      
64            319.713      
66            319.971      
68            320.23       
70            320.488      
72            320.746      
74            321.003      
76            321.261      
