# Probe 0 (0.005 -0.019 0.044)
# Time        0            
0             310.3        
20            310.493      
40            311.096      
60            311.639      
80            312.159      
100           312.665      
120           313.163      
140           313.654      
160           314.14       
180           314.621      
200           315.098      
220           315.572      
240           316.043      
260           316.512      
280           316.978      
300           317.443      
320           317.906      
340           318.367      
360           318.827      
380           319.286      
400           319.743      
420           320.199      
440           320.654      
460           321.108      
480           321.561      
500           322.012      
520           322.463      
540           322.913      
560           323.362      
580           323.81       
600           324.258      
620           324.704      
640           325.15       
660           325.595      
680           326.04       
700           326.484      
720           326.927      
740           327.369      
760           327.811      
780           328.253      
800           328.693      
820           329.134      
840           329.573      
860           330.013      
880           330.451      
900           330.89       
920           331.328      
940           331.765      
960           332.202      
980           332.639      
1000          333.075      
