# Probe 0 (0.015 -0.017 0.04)
# Time        0            
0             310.3        
20            310.803      
40            311.667      
60            312.57       
80            313.489      
100           314.409      
120           315.323      
