# Probe 0 (0.015 -0.017 0.04)
# Time        0            
0             310.3        
1             311.072      
2             311.078      
3             311.095      
4             311.116      
5             311.138      
6             311.161      
7             311.185      
8             311.21       
9             311.235      
10            311.262      
11            311.289      
12            311.318      
13            311.348      
14            311.379      
15            311.411      
16            311.444      
17            311.477      
18            311.512      
19            311.548      
20            311.584      
21            311.622      
22            311.66       
23            311.698      
24            311.737      
25            311.777      
26            311.818      
27            311.859      
28            311.9        
29            311.942      
30            311.984      
31            312.027      
32            312.07       
33            312.114      
34            312.158      
35            312.202      
36            312.246      
37            312.291      
38            312.336      
39            312.381      
40            312.427      
41            312.472      
42            312.518      
43            312.565      
44            312.611      
45            312.658      
46            312.704      
47            312.751      
48            312.799      
49            312.846      
50            312.893      
51            312.941      
52            312.989      
53            313.036      
54            313.084      
55            313.133      
56            313.181      
57            313.229      
58            313.278      
59            313.326      
60            313.375      
61            313.424      
62            313.473      
63            313.521      
64            313.571      
65            313.62       
66            313.669      
67            313.718      
68            313.768      
69            313.817      
70            313.867      
71            313.916      
72            313.966      
73            314.016      
74            314.065      
75            314.115      
76            314.165      
77            314.215      
78            314.265      
79            314.315      
80            314.365      
81            314.416      
82            314.466      
83            314.516      
84            314.566      
85            314.617      
86            314.667      
87            314.718      
88            314.768      
89            314.819      
90            314.869      
91            314.92       
92            314.971      
93            315.021      
94            315.072      
95            315.123      
96            315.174      
97            315.225      
98            315.276      
99            315.327      
100           315.378      
