# Probe 0 (0.015 -0.017 0.04)
# Time        0            
0             310.3        
20            310.606      
40            311.375      
60            312.247      
80            313.168      
100           314.11       
120           315.055      
