# Probe 0 (0.015 -0.017 0.04)
# Time        0            
0             310.3        
20            310.226      
40            310.207      
60            310.281      
80            310.439      
100           310.672      
120           310.971      
140           311.328      
160           311.738      
180           312.192      
200           312.687      
220           313.217      
240           313.778      
260           314.366      
280           314.976      
300           315.607      
320           316.256      
340           316.919      
360           317.595      
380           318.282      
400           318.977      
420           319.68       
440           320.389      
460           321.103      
480           321.82       
500           322.541      
520           323.263      
540           323.986      
560           324.709      
580           325.433      
600           326.155      
620           326.877      
640           327.597      
660           328.316      
680           329.033      
700           329.747      
720           330.458      
740           331.168      
760           331.874      
780           332.577      
800           333.277      
820           333.975      
840           334.669      
860           335.359      
880           336.047      
900           336.731      
920           337.412      
940           338.09       
960           338.765      
980           339.436      
1000          340.104      
