# Probe 0 (0 -0.027 0.035)
# Time        0            
0             400          
0.00119904    400.001      
0.00263616    400.002      
0.00434106    400.004      
0.00604596    400.005      
0.00775085    400.006      
0.00945575    400.007      
0.0111606     400.008      
0.0128655     400.008      
0.0145704     400.008      
0.0162753     400.007      
0.0179802     400.005      
0.0196851     400.003      
0.02139       399.999      
0.0230949     399.994      
0.0247998     399.988      
0.0265047     399.981      
0.0282096     399.973      
0.0299145     399.963      
0.0316194     399.951      
0.0333243     399.938      
0.0350292     399.924      
0.0367341     399.908      
0.038439      399.89       
0.0401439     399.872      
0.0418488     399.851      
0.0435537     399.829      
0.0452586     399.806      
0.0469634     399.782      
0.0486683     399.756      
0.0503732     399.729      
0.0520781     399.701      
0.053783      399.671      
0.0554879     399.64       
0.0571928     399.609      
0.0588977     399.576      
0.0606026     399.542      
0.0623075     399.507      
0.0640124     399.471      
0.0657173     399.435      
0.0674222     399.397      
0.0691271     399.359      
0.070832      399.32       
0.0725369     399.28       
0.0742418     399.24       
0.0759467     399.198      
0.0776516     399.157      
0.0793565     399.114      
0.0810614     399.071      
0.0827663     399.028      
0.0844711     398.984      
0.086176      398.939      
0.0878809     398.894      
0.0895858     398.849      
0.0912907     398.803      
0.0929956     398.757      
0.0947005     398.71       
0.0964054     398.663      
0.0981103     398.616      
0.0998152     398.569      
0.10152       398.521      
0.103225      398.473      
0.10493       398.424      
0.106635      398.376      
0.10834       398.327      
0.110045      398.278      
0.111749      398.229      
0.113454      398.18       
0.115159      398.13       
0.116864      398.081      
0.118569      398.031      
0.120274      397.981      
0.121979      397.931      
0.123684      397.881      
0.125389      397.831      
0.127094      397.78       
0.128798      397.73       
0.130503      397.68       
0.132208      397.629      
0.133913      397.579      
0.135618      397.528      
0.137323      397.478      
0.139028      397.427      
0.140733      397.376      
0.142438      397.326      
0.144142      397.275      
0.145847      397.224      
0.147552      397.174      
0.149257      397.123      
0.150962      397.073      
0.152667      397.022      
0.154372      396.971      
0.156077      396.921      
0.157782      396.87       
0.159487      396.82       
0.161191      396.769      
0.162896      396.719      
0.164601      396.669      
0.166306      396.618      
0.168011      396.568      
0.169716      396.518      
0.171421      396.468      
0.173126      396.418      
0.174831      396.368      
0.176535      396.318      
0.17824       396.268      
0.179945      396.219      
0.18165       396.169      
0.183355      396.12       
0.18506       396.07       
0.186765      396.021      
0.18847       395.971      
0.190175      395.922      
0.19188       395.873      
0.193584      395.824      
0.195289      395.775      
0.196994      395.727      
0.198699      395.678      
0.200404      395.629      
0.202109      395.581      
0.203814      395.532      
0.205519      395.484      
0.207224      395.436      
0.208929      395.388      
0.210633      395.34       
0.212338      395.292      
0.214043      395.244      
0.215748      395.197      
0.217453      395.149      
0.219158      395.102      
0.220863      395.054      
0.222568      395.007      
0.224273      394.96       
0.225977      394.913      
0.227682      394.867      
0.229387      394.82       
0.231092      394.773      
0.232797      394.727      
0.234502      394.68       
0.236207      394.634      
0.237912      394.588      
0.239617      394.542      
0.241322      394.496      
0.243026      394.451      
0.244731      394.405      
0.246436      394.359      
0.248141      394.314      
0.249846      394.269      
0.251551      394.224      
0.253256      394.179      
0.254961      394.134      
0.256666      394.089      
0.25837       394.044      
0.260075      394          
0.26178       393.955      
0.263485      393.911      
0.26519       393.867      
0.266895      393.823      
0.2686        393.779      
0.270305      393.735      
0.27201       393.692      
0.273715      393.648      
0.275419      393.605      
0.277124      393.561      
0.278829      393.518      
0.280534      393.475      
0.282239      393.432      
0.283944      393.389      
0.285649      393.347      
0.287354      393.304      
0.289059      393.262      
0.290763      393.219      
0.292468      393.177      
0.294173      393.135      
0.295878      393.093      
0.297583      393.051      
0.299288      393.01       
0.300993      392.968      
0.302698      392.926      
0.304403      392.885      
0.306108      392.844      
0.307812      392.803      
0.309517      392.762      
0.311222      392.721      
0.312927      392.68       
0.314632      392.639      
0.316337      392.599      
0.318042      392.558      
0.319747      392.518      
0.321452      392.478      
0.323157      392.438      
0.324861      392.398      
0.326566      392.358      
0.328271      392.318      
0.329976      392.278      
0.331681      392.239      
0.333386      392.2        
0.335091      392.16       
0.336796      392.121      
0.338501      392.082      
0.340205      392.043      
0.34191       392.004      
0.343615      391.965      
0.34532       391.927      
0.347025      391.888      
0.34873       391.85       
0.350435      391.811      
0.35214       391.773      
0.353845      391.735      
0.35555       391.697      
0.357254      391.659      
0.358959      391.621      
0.360664      391.584      
0.362369      391.546      
0.364074      391.509      
0.365779      391.471      
0.367484      391.434      
0.369189      391.397      
0.370894      391.36       
0.372598      391.323      
0.374303      391.286      
0.376008      391.249      
0.377713      391.213      
0.379418      391.176      
0.381123      391.14       
0.382828      391.103      
0.384533      391.067      
0.386238      391.031      
0.387943      390.995      
0.389647      390.959      
0.391352      390.923      
0.393057      390.887      
0.394762      390.851      
0.396467      390.816      
0.398172      390.78       
0.399877      390.745      
0.401582      390.71       
0.403287      390.674      
0.404991      390.639      
0.406696      390.604      
0.408401      390.569      
0.410106      390.534      
0.411811      390.5        
0.413516      390.465      
0.415221      390.43       
0.416926      390.396      
0.418631      390.362      
0.420336      390.327      
0.42204       390.293      
0.423745      390.259      
0.42545       390.225      
0.427155      390.191      
0.42886       390.157      
0.430565      390.123      
0.43227       390.09       
0.433975      390.056      
0.43568       390.022      
0.437385      389.989      
0.439089      389.956      
0.440794      389.922      
0.442499      389.889      
0.444204      389.856      
0.445909      389.823      
0.447614      389.79       
0.449319      389.757      
0.451024      389.724      
0.452729      389.692      
0.454433      389.659      
0.456138      389.627      
0.457843      389.594      
0.459548      389.562      
0.461253      389.529      
0.462958      389.497      
0.464663      389.465      
0.466368      389.433      
0.468073      389.401      
0.469778      389.369      
0.471482      389.337      
0.473187      389.305      
0.474892      389.274      
0.476597      389.242      
0.478302      389.211      
0.480007      389.179      
0.481712      389.148      
0.483417      389.116      
0.485122      389.085      
0.486826      389.054      
0.488531      389.023      
0.490236      388.992      
0.491941      388.961      
0.493646      388.93       
0.495351      388.899      
0.497056      388.868      
0.498761      388.838      
0.500466      388.807      
0.502171      388.776      
0.503875      388.746      
0.50558       388.715      
0.507285      388.685      
0.50899       388.655      
0.510695      388.625      
0.5124        388.594      
0.514105      388.564      
0.51581       388.534      
0.517515      388.504      
0.519219      388.474      
0.520924      388.445      
0.522629      388.415      
0.524334      388.385      
0.526039      388.356      
0.527744      388.326      
0.529449      388.296      
0.531154      388.267      
0.532859      388.238      
0.534564      388.208      
0.536268      388.179      
0.537973      388.15       
0.539678      388.121      
0.541383      388.092      
0.543088      388.063      
0.544793      388.034      
0.546498      388.005      
0.548203      387.976      
0.549908      387.947      
0.551612      387.918      
0.553317      387.89       
0.555022      387.861      
0.556727      387.833      
0.558432      387.804      
0.560137      387.776      
0.561842      387.747      
0.563547      387.719      
0.565252      387.691      
0.566957      387.662      
0.568661      387.634      
0.570366      387.606      
0.572071      387.578      
0.573776      387.55       
0.575481      387.522      
0.577186      387.494      
0.578891      387.466      
0.580596      387.439      
0.582301      387.411      
0.584006      387.383      
0.58571       387.356      
0.587415      387.328      
0.58912       387.3        
0.590825      387.273      
0.59253       387.246      
0.594235      387.218      
0.59594       387.191      
0.597645      387.164      
0.59935       387.136      
0.601054      387.109      
0.602759      387.082      
0.604464      387.055      
0.606169      387.028      
0.607874      387.001      
0.609579      386.974      
0.611284      386.947      
0.612989      386.92       
0.614694      386.894      
0.616399      386.867      
0.618103      386.84       
0.619808      386.813      
0.621513      386.787      
0.623218      386.76       
0.624923      386.734      
0.626628      386.707      
0.628333      386.681      
0.630038      386.655      
0.631743      386.628      
0.633447      386.602      
0.635152      386.576      
0.636857      386.55       
0.638562      386.523      
0.640267      386.497      
0.641972      386.471      
0.643677      386.445      
0.645382      386.419      
0.647087      386.393      
0.648792      386.367      
0.650496      386.342      
0.652201      386.316      
0.653906      386.29       
0.655611      386.264      
0.657316      386.239      
0.659021      386.213      
0.660726      386.187      
0.662431      386.162      
0.664136      386.136      
0.66584       386.111      
0.667545      386.086      
0.66925       386.06       
0.670955      386.035      
0.67266       386.009      
0.674365      385.984      
0.67607       385.959      
0.677775      385.934      
0.67948       385.909      
0.681185      385.884      
0.682889      385.858      
0.684594      385.833      
0.686299      385.808      
0.688004      385.783      
0.689709      385.759      
0.691414      385.734      
0.693119      385.709      
0.694824      385.684      
0.696529      385.659      
0.698234      385.634      
0.699938      385.61       
0.701643      385.585      
0.703348      385.56       
0.705053      385.536      
0.706758      385.511      
0.708463      385.487      
0.710168      385.462      
0.711873      385.438      
0.713578      385.413      
0.715282      385.389      
0.716987      385.365      
0.718692      385.34       
0.720397      385.316      
0.722102      385.292      
0.723807      385.268      
0.725512      385.244      
0.727217      385.219      
0.728922      385.195      
0.730627      385.171      
0.732331      385.147      
0.734036      385.123      
0.735741      385.099      
0.737446      385.075      
0.739151      385.051      
0.740856      385.028      
0.742561      385.004      
0.744266      384.98       
0.745971      384.956      
0.747675      384.932      
0.74938       384.909      
0.751085      384.885      
0.75279       384.861      
0.754495      384.838      
0.7562        384.814      
0.757905      384.791      
0.75961       384.767      
0.761315      384.744      
0.76302       384.72       
0.764724      384.697      
0.766429      384.673      
0.768134      384.65       
0.769839      384.627      
0.771544      384.603      
0.773249      384.58       
0.774954      384.557      
0.776659      384.534      
0.778364      384.51       
0.780068      384.487      
0.781773      384.464      
0.783478      384.441      
0.785183      384.418      
0.786888      384.395      
0.788593      384.372      
0.790298      384.349      
0.792003      384.326      
0.793708      384.303      
0.795413      384.28       
0.797117      384.257      
0.798822      384.234      
0.800527      384.211      
0.802232      384.189      
0.803937      384.166      
0.805642      384.143      
0.807347      384.12       
0.809052      384.098      
0.810757      384.075      
0.812462      384.053      
0.814166      384.03       
0.815871      384.007      
0.817576      383.985      
0.819281      383.962      
0.820986      383.94       
0.822691      383.917      
0.824396      383.895      
0.826101      383.872      
0.827806      383.85       
0.82951       383.828      
0.831215      383.805      
0.83292       383.783      
0.834625      383.761      
0.83633       383.738      
0.838035      383.716      
0.83974       383.694      
0.841445      383.672      
0.84315       383.65       
0.844855      383.628      
0.846559      383.605      
0.848264      383.583      
0.849969      383.561      
0.851674      383.539      
0.853379      383.517      
0.855084      383.495      
0.856789      383.473      
0.858494      383.451      
0.860199      383.429      
0.861903      383.408      
0.863608      383.386      
0.865313      383.364      
0.867018      383.342      
0.868723      383.32       
0.870428      383.298      
0.872133      383.277      
0.873838      383.255      
0.875543      383.233      
0.877248      383.212      
0.878952      383.19       
0.880657      383.168      
0.882362      383.147      
0.884067      383.125      
0.885772      383.103      
0.887477      383.082      
0.889182      383.06       
0.890887      383.039      
0.892592      383.017      
0.894296      382.996      
0.896001      382.975      
0.897706      382.953      
0.899411      382.932      
0.901116      382.91       
0.902821      382.889      
0.904526      382.868      
0.906231      382.846      
0.907936      382.825      
0.909641      382.804      
0.911345      382.783      
0.91305       382.761      
0.914755      382.74       
0.91646       382.719      
0.918165      382.698      
0.91987       382.677      
0.921575      382.656      
0.92328       382.635      
0.924985      382.613      
0.926689      382.592      
0.928394      382.571      
0.930099      382.55       
0.931804      382.529      
0.933509      382.508      
0.935214      382.487      
0.936919      382.467      
0.938624      382.446      
0.940329      382.425      
0.942034      382.404      
0.943738      382.383      
0.945443      382.362      
0.947148      382.341      
0.948853      382.321      
0.950558      382.3        
0.952263      382.279      
0.953968      382.258      
0.955673      382.238      
0.957378      382.217      
0.959083      382.196      
0.960787      382.176      
0.962492      382.155      
0.964197      382.134      
0.965902      382.114      
0.967607      382.093      
0.969312      382.073      
0.971017      382.052      
0.972722      382.032      
0.974427      382.011      
0.976131      381.991      
0.977836      381.97       
0.979541      381.95       
0.981246      381.929      
0.982951      381.909      
0.984656      381.889      
0.986361      381.868      
0.988066      381.848      
0.989771      381.828      
0.991476      381.807      
0.99318       381.787      
0.994885      381.767      
0.99659       381.746      
0.998295      381.726      
1             381.706      
1.0017        381.686      
1.00341       381.666      
1.00511       381.645      
1.00681       381.625      
1.00852       381.605      
1.01022       381.585      
1.01193       381.565      
1.01363       381.545      
1.01533       381.525      
1.01704       381.505      
1.01874       381.485      
1.02044       381.465      
1.02215       381.445      
1.02385       381.425      
1.02555       381.405      
1.02726       381.385      
1.02896       381.365      
1.03066       381.345      
1.03237       381.325      
1.03407       381.306      
1.03578       381.286      
1.03748       381.266      
1.03918       381.246      
1.04089       381.226      
1.04259       381.206      
1.04429       381.187      
1.046         381.167      
1.0477        381.147      
1.0494        381.128      
1.05111       381.108      
1.05281       381.088      
1.05451       381.069      
1.05622       381.049      
1.05792       381.029      
1.05963       381.01       
1.06133       380.99       
1.06303       380.971      
1.06474       380.951      
1.06644       380.931      
1.06814       380.912      
1.06985       380.892      
1.07155       380.873      
1.07325       380.853      
1.07496       380.834      
1.07666       380.814      
1.07836       380.795      
1.08007       380.776      
1.08177       380.756      
1.08348       380.737      
1.08518       380.717      
1.08688       380.698      
1.08859       380.679      
1.09029       380.659      
1.09199       380.64       
1.0937        380.621      
1.0954        380.602      
1.0971        380.582      
1.09881       380.563      
1.10051       380.544      
1.10221       380.525      
1.10392       380.505      
1.10562       380.486      
1.10733       380.467      
1.10903       380.448      
1.11073       380.429      
1.11244       380.41       
1.11414       380.39       
1.11584       380.371      
1.11755       380.352      
1.11925       380.333      
1.12095       380.314      
1.12266       380.295      
1.12436       380.276      
1.12606       380.257      
1.12777       380.238      
1.12947       380.219      
1.13118       380.2        
1.13288       380.181      
1.13458       380.162      
1.13629       380.143      
1.13799       380.124      
1.13969       380.106      
1.1414        380.087      
1.1431        380.068      
1.1448        380.049      
1.14651       380.03       
1.14821       380.011      
1.14991       379.993      
1.15162       379.974      
1.15332       379.955      
1.15503       379.936      
1.15673       379.917      
1.15843       379.899      
1.16014       379.88       
1.16184       379.861      
1.16354       379.843      
1.16525       379.824      
1.16695       379.805      
1.16865       379.787      
1.17036       379.768      
1.17206       379.749      
1.17376       379.731      
1.17547       379.712      
1.17717       379.694      
1.17888       379.675      
1.18058       379.656      
1.18228       379.638      
1.18399       379.619      
1.18569       379.601      
1.18739       379.582      
1.1891        379.564      
1.1908        379.545      
1.1925        379.527      
1.19421       379.508      
1.19591       379.49       
1.19761       379.472      
1.19932       379.453      
1.20102       379.435      
1.20273       379.416      
1.20443       379.398      
1.20613       379.38       
1.20784       379.361      
1.20954       379.343      
1.21124       379.325      
1.21295       379.306      
1.21465       379.288      
1.21635       379.27       
1.21806       379.252      
1.21976       379.233      
1.22147       379.215      
1.22317       379.197      
1.22487       379.179      
1.22658       379.16       
1.22828       379.142      
1.22998       379.124      
1.23169       379.106      
1.23339       379.088      
1.23509       379.07       
1.2368        379.051      
1.2385        379.033      
1.2402        379.015      
1.24191       378.997      
1.24361       378.979      
1.24532       378.961      
1.24702       378.943      
1.24872       378.925      
1.25043       378.907      
1.25213       378.889      
1.25383       378.871      
1.25554       378.853      
1.25724       378.835      
1.25894       378.817      
1.26065       378.799      
1.26235       378.781      
1.26405       378.763      
1.26576       378.745      
1.26746       378.727      
1.26917       378.71       
1.27087       378.692      
1.27257       378.674      
1.27428       378.656      
1.27598       378.638      
1.27768       378.62       
1.27939       378.602      
1.28109       378.585      
1.28279       378.567      
1.2845        378.549      
1.2862        378.531      
1.2879        378.514      
1.28961       378.496      
1.29131       378.478      
1.29302       378.46       
1.29472       378.443      
1.29642       378.425      
1.29813       378.407      
1.29983       378.39       
1.30153       378.372      
1.30324       378.354      
1.30494       378.337      
1.30664       378.319      
1.30835       378.301      
1.31005       378.284      
1.31175       378.266      
1.31346       378.249      
1.31516       378.231      
1.31687       378.214      
1.31857       378.196      
1.32027       378.179      
1.32198       378.161      
1.32368       378.144      
1.32538       378.126      
1.32709       378.109      
1.32879       378.091      
1.33049       378.074      
1.3322        378.056      
1.3339        378.039      
1.3356        378.021      
1.33731       378.004      
1.33901       377.987      
1.34072       377.969      
1.34242       377.952      
1.34412       377.934      
1.34583       377.917      
1.34753       377.9        
1.34923       377.882      
1.35094       377.865      
1.35264       377.848      
1.35434       377.83       
1.35605       377.813      
1.35775       377.796      
1.35945       377.779      
1.36116       377.761      
1.36286       377.744      
1.36457       377.727      
1.36627       377.71       
1.36797       377.692      
1.36968       377.675      
1.37138       377.658      
1.37308       377.641      
1.37479       377.624      
1.37649       377.607      
1.37819       377.589      
1.3799        377.572      
1.3816        377.555      
1.3833        377.538      
1.38501       377.521      
1.38671       377.504      
1.38842       377.487      
1.39012       377.47       
1.39182       377.453      
1.39353       377.436      
1.39523       377.419      
1.39693       377.402      
1.39864       377.385      
1.40034       377.368      
1.40204       377.351      
1.40375       377.334      
1.40545       377.317      
1.40716       377.3        
1.40886       377.283      
1.41056       377.266      
1.41227       377.249      
1.41397       377.232      
1.41567       377.215      
1.41738       377.198      
1.41908       377.181      
1.42078       377.164      
1.42249       377.148      
1.42419       377.131      
1.42589       377.114      
1.4276        377.097      
1.4293        377.08       
1.43101       377.063      
1.43271       377.047      
1.43441       377.03       
1.43612       377.013      
1.43782       376.996      
1.43952       376.98       
1.44123       376.963      
1.44293       376.946      
1.44463       376.929      
1.44634       376.913      
1.44804       376.896      
1.44974       376.879      
1.45145       376.863      
1.45315       376.846      
1.45486       376.829      
1.45656       376.813      
1.45826       376.796      
1.45997       376.779      
1.46167       376.763      
1.46337       376.746      
1.46508       376.729      
1.46678       376.713      
1.46848       376.696      
1.47019       376.68       
1.47189       376.663      
1.47359       376.647      
1.4753        376.63       
1.477         376.614      
1.47871       376.597      
1.48041       376.581      
1.48211       376.564      
1.48382       376.548      
1.48552       376.531      
1.48722       376.515      
1.48893       376.498      
1.49063       376.482      
1.49233       376.465      
1.49404       376.449      
1.49574       376.432      
1.49744       376.416      
1.49915       376.4        
1.50085       376.383      
1.50256       376.367      
1.50426       376.35       
1.50596       376.334      
1.50767       376.318      
1.50937       376.301      
1.51107       376.285      
1.51278       376.269      
1.51448       376.252      
1.51618       376.236      
1.51789       376.22       
1.51959       376.204      
1.52129       376.187      
1.523         376.171      
1.5247        376.155      
1.52641       376.139      
1.52811       376.122      
1.52981       376.106      
1.53152       376.09       
1.53322       376.074      
1.53492       376.058      
1.53663       376.041      
1.53833       376.025      
1.54003       376.009      
1.54174       375.993      
1.54344       375.977      
1.54514       375.961      
1.54685       375.944      
1.54855       375.928      
1.55026       375.912      
1.55196       375.896      
1.55366       375.88       
1.55537       375.864      
1.55707       375.848      
1.55877       375.832      
1.56048       375.816      
1.56218       375.8        
1.56388       375.784      
1.56559       375.768      
1.56729       375.752      
1.56899       375.736      
1.5707        375.72       
1.5724        375.704      
1.57411       375.688      
1.57581       375.672      
1.57751       375.656      
1.57922       375.64       
1.58092       375.624      
1.58262       375.608      
1.58433       375.592      
1.58603       375.576      
1.58773       375.56       
1.58944       375.544      
1.59114       375.529      
1.59284       375.513      
1.59455       375.497      
1.59625       375.481      
1.59796       375.465      
1.59966       375.449      
1.60136       375.434      
1.60307       375.418      
1.60477       375.402      
1.60647       375.386      
1.60818       375.37       
1.60988       375.355      
1.61158       375.339      
1.61329       375.323      
1.61499       375.307      
1.6167        375.292      
1.6184        375.276      
1.6201        375.26       
1.62181       375.244      
1.62351       375.229      
1.62521       375.213      
1.62692       375.197      
1.62862       375.182      
1.63032       375.166      
1.63203       375.15       
1.63373       375.135      
1.63543       375.119      
1.63714       375.103      
1.63884       375.088      
1.64055       375.072      
1.64225       375.057      
1.64395       375.041      
1.64566       375.025      
1.64736       375.01       
1.64906       374.994      
1.65077       374.979      
1.65247       374.963      
1.65417       374.948      
1.65588       374.932      
1.65758       374.917      
1.65928       374.901      
1.66099       374.886      
1.66269       374.87       
1.6644        374.855      
1.6661        374.839      
1.6678        374.824      
1.66951       374.808      
1.67121       374.793      
1.67291       374.777      
1.67462       374.762      
1.67632       374.747      
1.67802       374.731      
1.67973       374.716      
1.68143       374.7        
1.68313       374.685      
1.68484       374.67       
1.68654       374.654      
1.68825       374.639      
1.68995       374.624      
1.69165       374.608      
1.69336       374.593      
1.69506       374.578      
1.69676       374.562      
1.69847       374.547      
1.70017       374.532      
1.70187       374.516      
1.70358       374.501      
1.70528       374.486      
1.70698       374.471      
1.70869       374.455      
1.71039       374.44       
1.7121        374.425      
1.7138        374.41       
1.7155        374.394      
1.71721       374.379      
1.71891       374.364      
1.72061       374.349      
1.72232       374.334      
1.72402       374.318      
1.72572       374.303      
1.72743       374.288      
1.72913       374.273      
1.73083       374.258      
1.73254       374.243      
1.73424       374.227      
1.73595       374.212      
1.73765       374.197      
1.73935       374.182      
1.74106       374.167      
1.74276       374.152      
1.74446       374.137      
1.74617       374.122      
1.74787       374.107      
1.74957       374.092      
1.75128       374.077      
1.75298       374.062      
1.75468       374.047      
1.75639       374.032      
1.75809       374.017      
1.7598        374.002      
1.7615        373.987      
1.7632        373.972      
1.76491       373.957      
1.76661       373.942      
1.76831       373.927      
1.77002       373.912      
1.77172       373.897      
1.77342       373.882      
1.77513       373.867      
1.77683       373.852      
1.77853       373.837      
1.78024       373.822      
1.78194       373.807      
1.78365       373.793      
1.78535       373.778      
1.78705       373.763      
1.78876       373.748      
1.79046       373.733      
1.79216       373.718      
1.79387       373.703      
1.79557       373.689      
1.79727       373.674      
1.79898       373.659      
1.80068       373.644      
1.80239       373.629      
1.80409       373.615      
1.80579       373.6        
1.8075        373.585      
1.8092        373.57       
1.8109        373.556      
1.81261       373.541      
1.81431       373.526      
1.81601       373.511      
1.81772       373.497      
1.81942       373.482      