# Probe 0 (0 -0.027 0.035)
# Time        0            
0             373          
0.00119904    373          
0.00263616    373          
0.00434106    373          
0.00604596    373          
0.00775085    373          
0.00945575    372.999      
0.0111606     372.999      
0.0128655     372.998      
0.0145704     372.997      
0.0162753     372.995      
0.0179802     372.993      
0.0196851     372.99       
0.02139       372.986      
0.0230949     372.981      
0.0247998     372.976      
0.0265047     372.97       
0.0282096     372.962      
0.0299145     372.954      
0.0316194     372.944      
0.0333243     372.934      
0.0350292     372.922      
0.0367341     372.91       
0.038439      372.896      
0.0401439     372.881      
0.0418488     372.865      
0.0435537     372.848      
0.0452586     372.83       
0.0469634     372.811      
0.0486683     372.791      
0.0503732     372.771      
0.0520781     372.749      
0.053783      372.726      
0.0554879     372.703      
0.0571928     372.678      
0.0588977     372.653      
0.0606026     372.628      
0.0623075     372.601      
0.0640124     372.574      
0.0657173     372.546      
0.0674222     372.518      
0.0691271     372.489      
0.070832      372.459      
0.0725369     372.429      
0.0742418     372.398      
0.0759467     372.367      
0.0776516     372.336      
0.0793565     372.304      
0.0810614     372.271      
0.0827663     372.238      
0.0844711     372.205      
0.086176      372.172      
0.0878809     372.138      
0.0895858     372.104      
0.0912907     372.069      
0.0929956     372.034      
0.0947005     371.999      
0.0964054     371.964      
0.0981103     371.928      
0.0998152     371.893      
0.10152       371.857      
0.103225      371.821      
0.10493       371.784      
0.106635      371.748      
0.10834       371.711      
0.110045      371.674      
0.111749      371.638      
0.113454      371.6        
0.115159      371.563      
0.116864      371.526      
0.118569      371.489      
0.120274      371.451      
0.121979      371.414      
0.123684      371.376      
0.125389      371.338      
0.127094      371.301      
0.128798      371.263      
0.130503      371.225      
0.132208      371.187      
0.133913      371.149      
0.135618      371.111      
0.137323      371.073      
0.139028      371.035      
0.140733      370.997      
0.142438      370.959      
0.144142      370.921      
0.145847      370.883      
0.147552      370.845      
0.149257      370.807      
0.150962      370.769      
0.152667      370.731      
0.154372      370.693      
0.156077      370.655      
0.157782      370.618      
0.159487      370.58       
0.161191      370.542      
0.162896      370.504      
0.164601      370.466      
0.166306      370.429      
0.168011      370.391      
0.169716      370.353      
0.171421      370.316      
0.173126      370.278      
0.174831      370.241      
0.176535      370.203      
0.17824       370.166      
0.179945      370.128      
0.18165       370.091      
0.183355      370.054      
0.18506       370.017      
0.186765      369.98       
0.18847       369.943      
0.190175      369.906      
0.19188       369.869      
0.193584      369.832      
0.195289      369.796      
0.196994      369.759      
0.198699      369.722      
0.200404      369.686      
0.202109      369.649      
0.203814      369.613      
0.205519      369.577      
0.207224      369.541      
0.208929      369.505      
0.210633      369.469      
0.212338      369.433      
0.214043      369.397      
0.215748      369.361      
0.217453      369.325      
0.219158      369.29       
0.220863      369.254      
0.222568      369.219      
0.224273      369.183      
0.225977      369.148      
0.227682      369.113      
0.229387      369.078      
0.231092      369.043      
0.232797      369.008      
0.234502      368.973      
0.236207      368.938      
0.237912      368.904      
0.239617      368.869      
0.241322      368.834      
0.243026      368.8        
0.244731      368.766      
0.246436      368.732      
0.248141      368.697      
0.249846      368.663      
0.251551      368.629      
0.253256      368.596      
0.254961      368.562      
0.256666      368.528      
0.25837       368.495      
0.260075      368.461      
0.26178       368.428      
0.263485      368.394      
0.26519       368.361      
0.266895      368.328      
0.2686        368.295      
0.270305      368.262      
0.27201       368.229      
0.273715      368.196      
0.275419      368.164      
0.277124      368.131      
0.278829      368.098      
0.280534      368.066      
0.282239      368.034      
0.283944      368.001      
0.285649      367.969      
0.287354      367.937      
0.289059      367.905      
0.290763      367.873      
0.292468      367.842      
0.294173      367.81       
0.295878      367.778      
0.297583      367.747      
0.299288      367.715      
0.300993      367.684      
0.302698      367.653      
0.304403      367.621      
0.306108      367.59       
0.307812      367.559      
0.309517      367.528      
0.311222      367.497      
0.312927      367.467      
0.314632      367.436      
0.316337      367.405      
0.318042      367.375      
0.319747      367.345      
0.321452      367.314      
0.323157      367.284      
0.324861      367.254      
0.326566      367.224      
0.328271      367.194      
0.329976      367.164      
0.331681      367.134      
0.333386      367.104      
0.335091      367.074      
0.336796      367.045      
0.338501      367.015      
0.340205      366.986      
0.34191       366.957      
0.343615      366.927      
0.34532       366.898      
0.347025      366.869      
0.34873       366.84       
0.350435      366.811      
0.35214       366.782      
0.353845      366.753      
0.35555       366.725      
0.357254      366.696      
0.358959      366.667      
0.360664      366.639      
0.362369      366.611      
0.364074      366.582      
0.365779      366.554      
0.367484      366.526      
0.369189      366.498      
0.370894      366.47       
0.372598      366.442      
0.374303      366.414      
0.376008      366.386      
0.377713      366.358      
0.379418      366.331      
0.381123      366.303      
0.382828      366.275      
0.384533      366.248      
0.386238      366.221      
0.387943      366.193      
0.389647      366.166      
0.391352      366.139      
0.393057      366.112      
0.394762      366.085      
0.396467      366.058      
0.398172      366.031      
0.399877      366.004      
0.401582      365.978      
0.403287      365.951      
0.404991      365.924      
0.406696      365.898      
0.408401      365.871      
0.410106      365.845      
0.411811      365.819      
0.413516      365.792      
0.415221      365.766      
0.416926      365.74       
0.418631      365.714      
0.420336      365.688      
0.42204       365.662      
0.423745      365.636      
0.42545       365.61       
0.427155      365.584      
0.42886       365.559      
0.430565      365.533      
0.43227       365.508      
0.433975      365.482      
0.43568       365.457      
0.437385      365.431      
0.439089      365.406      
0.440794      365.381      
0.442499      365.356      
0.444204      365.33       
0.445909      365.305      
0.447614      365.28       
0.449319      365.255      
0.451024      365.231      
0.452729      365.206      
0.454433      365.181      
0.456138      365.156      
0.457843      365.132      
0.459548      365.107      
0.461253      365.082      
0.462958      365.058      
0.464663      365.034      
0.466368      365.009      
0.468073      364.985      
0.469778      364.961      
0.471482      364.936      
0.473187      364.912      
0.474892      364.888      
0.476597      364.864      
0.478302      364.84       
0.480007      364.816      
0.481712      364.792      
0.483417      364.769      
0.485122      364.745      
0.486826      364.721      
0.488531      364.697      
0.490236      364.674      
0.491941      364.65       
0.493646      364.627      
0.495351      364.603      
0.497056      364.58       
0.498761      364.557      
0.500466      364.533      
0.502171      364.51       
0.503875      364.487      
0.50558       364.464      
0.507285      364.441      
0.50899       364.417      
0.510695      364.394      
0.5124        364.371      
0.514105      364.349      
0.51581       364.326      
0.517515      364.303      
0.519219      364.28       
0.520924      364.257      
0.522629      364.235      
0.524334      364.212      
0.526039      364.19       
0.527744      364.167      
0.529449      364.145      
0.531154      364.122      
0.532859      364.1        
0.534564      364.077      
0.536268      364.055      
0.537973      364.033      
0.539678      364.011      
0.541383      363.988      
0.543088      363.966      
0.544793      363.944      
0.546498      363.922      
0.548203      363.9        
0.549908      363.878      
0.551612      363.856      
0.553317      363.835      
0.555022      363.813      
0.556727      363.791      
0.558432      363.769      
0.560137      363.747      
0.561842      363.726      
0.563547      363.704      
0.565252      363.683      
0.566957      363.661      
0.568661      363.64       
0.570366      363.618      
0.572071      363.597      
0.573776      363.575      
0.575481      363.554      
0.577186      363.533      
0.578891      363.511      
0.580596      363.49       
0.582301      363.469      
0.584006      363.448      
0.58571       363.427      
0.587415      363.406      
0.58912       363.385      
0.590825      363.364      
0.59253       363.343      
0.594235      363.322      
0.59594       363.301      
0.597645      363.28       
0.59935       363.259      
0.601054      363.239      
0.602759      363.218      
0.604464      363.197      
0.606169      363.177      
0.607874      363.156      
0.609579      363.135      
0.611284      363.115      
0.612989      363.094      
0.614694      363.074      
0.616399      363.053      
0.618103      363.033      
0.619808      363.013      
0.621513      362.992      
0.623218      362.972      
0.624923      362.952      
0.626628      362.932      
0.628333      362.911      
0.630038      362.891      
0.631743      362.871      
0.633447      362.851      
0.635152      362.831      
0.636857      362.811      
0.638562      362.791      
0.640267      362.771      
0.641972      362.751      
0.643677      362.731      
0.645382      362.711      
0.647087      362.691      
0.648792      362.671      
0.650496      362.652      
0.652201      362.632      
0.653906      362.612      
0.655611      362.593      
0.657316      362.573      
0.659021      362.553      
0.660726      362.534      
0.662431      362.514      
0.664136      362.495      
0.66584       362.475      
0.667545      362.456      
0.66925       362.436      
0.670955      362.417      
0.67266       362.397      
0.674365      362.378      
0.67607       362.359      
0.677775      362.339      
0.67948       362.32       
0.681185      362.301      
0.682889      362.282      
0.684594      362.262      
0.686299      362.243      
0.688004      362.224      
0.689709      362.205      
0.691414      362.186      
0.693119      362.167      
0.694824      362.148      
0.696529      362.129      
0.698234      362.11       
0.699938      362.091      
0.701643      362.072      
0.703348      362.053      
0.705053      362.034      
0.706758      362.015      
0.708463      361.997      
0.710168      361.978      
0.711873      361.959      
0.713578      361.94       
0.715282      361.922      
0.716987      361.903      
0.718692      361.884      
0.720397      361.866      
0.722102      361.847      
0.723807      361.829      
0.725512      361.81       
0.727217      361.791      
0.728922      361.773      
0.730627      361.755      
0.732331      361.736      
0.734036      361.718      
0.735741      361.699      
0.737446      361.681      
0.739151      361.663      
0.740856      361.644      
0.742561      361.626      
0.744266      361.608      
0.745971      361.589      
0.747675      361.571      
0.74938       361.553      
0.751085      361.535      
0.75279       361.517      
0.754495      361.498      
0.7562        361.48       
0.757905      361.462      
0.75961       361.444      
0.761315      361.426      
0.76302       361.408      
0.764724      361.39       
0.766429      361.372      
0.768134      361.354      
0.769839      361.336      
0.771544      361.318      
0.773249      361.3        
0.774954      361.283      
0.776659      361.265      
0.778364      361.247      
0.780068      361.229      
0.781773      361.211      
0.783478      361.193      
0.785183      361.176      
0.786888      361.158      
0.788593      361.14       
0.790298      361.123      
0.792003      361.105      
0.793708      361.087      
0.795413      361.07       
0.797117      361.052      
0.798822      361.035      
0.800527      361.017      
0.802232      361          
0.803937      360.982      
0.805642      360.965      
0.807347      360.947      
0.809052      360.93       
0.810757      360.912      
0.812462      360.895      
0.814166      360.877      
0.815871      360.86       
0.817576      360.843      
0.819281      360.825      
0.820986      360.808      
0.822691      360.791      
0.824396      360.773      
0.826101      360.756      
0.827806      360.739      
0.82951       360.722      
0.831215      360.705      
0.83292       360.687      
0.834625      360.67       
0.83633       360.653      
0.838035      360.636      
0.83974       360.619      
0.841445      360.602      
0.84315       360.585      
0.844855      360.568      
0.846559      360.551      
0.848264      360.534      
0.849969      360.517      
0.851674      360.5        
0.853379      360.483      
0.855084      360.466      
0.856789      360.449      
0.858494      360.432      
0.860199      360.415      
0.861903      360.398      
0.863608      360.381      
0.865313      360.364      
0.867018      360.348      
0.868723      360.331      
0.870428      360.314      
0.872133      360.297      
0.873838      360.281      
0.875543      360.264      
0.877248      360.247      
0.878952      360.23       
0.880657      360.214      
0.882362      360.197      
0.884067      360.18       
0.885772      360.164      
0.887477      360.147      
0.889182      360.131      
0.890887      360.114      
0.892592      360.098      
0.894296      360.081      
0.896001      360.064      
0.897706      360.048      
0.899411      360.031      
0.901116      360.015      
0.902821      359.999      
0.904526      359.982      
0.906231      359.966      
0.907936      359.949      
0.909641      359.933      
0.911345      359.916      
0.91305       359.9        
0.914755      359.884      
0.91646       359.867      
0.918165      359.851      
0.91987       359.835      
0.921575      359.819      
0.92328       359.802      
0.924985      359.786      
0.926689      359.77       
0.928394      359.754      
0.930099      359.737      
0.931804      359.721      
0.933509      359.705      
0.935214      359.689      
0.936919      359.673      
0.938624      359.656      
0.940329      359.64       
0.942034      359.624      
0.943738      359.608      
0.945443      359.592      
0.947148      359.576      
0.948853      359.56       
0.950558      359.544      
0.952263      359.528      
0.953968      359.512      
0.955673      359.496      
0.957378      359.48       
0.959083      359.464      
0.960787      359.448      
0.962492      359.432      
0.964197      359.416      
0.965902      359.4        
0.967607      359.384      
0.969312      359.369      
0.971017      359.353      
0.972722      359.337      
0.974427      359.321      
0.976131      359.305      
0.977836      359.289      
0.979541      359.274      
0.981246      359.258      
0.982951      359.242      
0.984656      359.226      
0.986361      359.211      
0.988066      359.195      
0.989771      359.179      
0.991476      359.163      
0.99318       359.148      
0.994885      359.132      
0.99659       359.116      
0.998295      359.101      
1             359.085      
1.0017        359.07       
1.00341       359.054      
1.00511       359.038      
1.00681       359.023      
1.00852       359.007      
1.01022       358.992      
1.01193       358.976      
1.01363       358.961      
1.01533       358.945      
1.01704       358.93       
1.01874       358.914      
1.02044       358.899      
1.02215       358.883      
1.02385       358.868      
1.02555       358.853      
1.02726       358.837      
1.02896       358.822      
1.03066       358.806      
1.03237       358.791      
1.03407       358.776      
1.03578       358.76       
1.03748       358.745      
1.03918       358.73       
1.04089       358.714      
1.04259       358.699      
1.04429       358.684      
1.046         358.669      
1.0477        358.653      
1.0494        358.638      
1.05111       358.623      
1.05281       358.608      
1.05451       358.592      
1.05622       358.577      
1.05792       358.562      
1.05963       358.547      
1.06133       358.532      
1.06303       358.517      
1.06474       358.501      
1.06644       358.486      
1.06814       358.471      
1.06985       358.456      
1.07155       358.441      
1.07325       358.426      
1.07496       358.411      
1.07666       358.396      
1.07836       358.381      
1.08007       358.366      
1.08177       358.351      
1.08348       358.336      
1.08518       358.321      
1.08688       358.306      
1.08859       358.291      
1.09029       358.276      
1.09199       358.261      
1.0937        358.246      
1.0954        358.231      
1.0971        358.216      
1.09881       358.201      
1.10051       358.186      
1.10221       358.171      
1.10392       358.157      
1.10562       358.142      
1.10733       358.127      
1.10903       358.112      
1.11073       358.097      
1.11244       358.082      
1.11414       358.068      
1.11584       358.053      
1.11755       358.038      
1.11925       358.023      
1.12095       358.008      
1.12266       357.994      
1.12436       357.979      
1.12606       357.964      
1.12777       357.95       
1.12947       357.935      
1.13118       357.92       
1.13288       357.905      
1.13458       357.891      
1.13629       357.876      
1.13799       357.861      
1.13969       357.847      
1.1414        357.832      
1.1431        357.818      
1.1448        357.803      
1.14651       357.788      
1.14821       357.774      
1.14991       357.759      
1.15162       357.745      
1.15332       357.73       
1.15503       357.716      
1.15673       357.701      
1.15843       357.687      
1.16014       357.672      
1.16184       357.658      
1.16354       357.643      
1.16525       357.629      
1.16695       357.614      
1.16865       357.6        
1.17036       357.585      
1.17206       357.571      
1.17376       357.556      
1.17547       357.542      
1.17717       357.527      
1.17888       357.513      
1.18058       357.499      
1.18228       357.484      
1.18399       357.47       
1.18569       357.456      
1.18739       357.441      
1.1891        357.427      
1.1908        357.413      
1.1925        357.398      
1.19421       357.384      
1.19591       357.37       
1.19761       357.355      
1.19932       357.341      
1.20102       357.327      
1.20273       357.313      
1.20443       357.298      
1.20613       357.284      
1.20784       357.27       
1.20954       357.256      
1.21124       357.241      
1.21295       357.227      
1.21465       357.213      
1.21635       357.199      
1.21806       357.185      
1.21976       357.171      
1.22147       357.156      
1.22317       357.142      
1.22487       357.128      
1.22658       357.114      
1.22828       357.1        
1.22998       357.086      
1.23169       357.072      
1.23339       357.058      
1.23509       357.044      
1.2368        357.029      
1.2385        357.015      
1.2402        357.001      
1.24191       356.987      
1.24361       356.973      
1.24532       356.959      
1.24702       356.945      
1.24872       356.931      
1.25043       356.917      
1.25213       356.903      
1.25383       356.889      
1.25554       356.875      
1.25724       356.861      
1.25894       356.847      
1.26065       356.834      
1.26235       356.82       
1.26405       356.806      
1.26576       356.792      
1.26746       356.778      
1.26917       356.764      
1.27087       356.75       
1.27257       356.736      
1.27428       356.722      
1.27598       356.709      
1.27768       356.695      
1.27939       356.681      
1.28109       356.667      
1.28279       356.653      
1.2845        356.639      
1.2862        356.626      
1.2879        356.612      
1.28961       356.598      
1.29131       356.584      
1.29302       356.571      
1.29472       356.557      
1.29642       356.543      
1.29813       356.529      
1.29983       356.516      
1.30153       356.502      
1.30324       356.488      
1.30494       356.475      
1.30664       356.461      
1.30835       356.447      
1.31005       356.433      
1.31175       356.42       
1.31346       356.406      
1.31516       356.393      
1.31687       356.379      
1.31857       356.365      
1.32027       356.352      
1.32198       356.338      
1.32368       356.324      
1.32538       356.311      
1.32709       356.297      
1.32879       356.284      
1.33049       356.27       
1.3322        356.257      
1.3339        356.243      
1.3356        356.229      
1.33731       356.216      
1.33901       356.202      
1.34072       356.189      
1.34242       356.175      
1.34412       356.162      
1.34583       356.148      
1.34753       356.135      
1.34923       356.121      
1.35094       356.108      
1.35264       356.094      
1.35434       356.081      
1.35605       356.068      
1.35775       356.054      
1.35945       356.041      
1.36116       356.027      
1.36286       356.014      
1.36457       356.001      
1.36627       355.987      
1.36797       355.974      
1.36968       355.96       
1.37138       355.947      
1.37308       355.934      
1.37479       355.92       
1.37649       355.907      
1.37819       355.894      
1.3799        355.88       
1.3816        355.867      
1.3833        355.854      
1.38501       355.84       
1.38671       355.827      
1.38842       355.814      
1.39012       355.801      
1.39182       355.787      
1.39353       355.774      
1.39523       355.761      
1.39693       355.748      
1.39864       355.734      
1.40034       355.721      
1.40204       355.708      
1.40375       355.695      
1.40545       355.681      
1.40716       355.668      
1.40886       355.655      
1.41056       355.642      
1.41227       355.629      
1.41397       355.616      
1.41567       355.602      
1.41738       355.589      
1.41908       355.576      
1.42078       355.563      
1.42249       355.55       
1.42419       355.537      
1.42589       355.524      
1.4276        355.511      
1.4293        355.498      
1.43101       355.484      
1.43271       355.471      
1.43441       355.458      
1.43612       355.445      
1.43782       355.432      
1.43952       355.419      
1.44123       355.406      
1.44293       355.393      
1.44463       355.38       
1.44634       355.367      
1.44804       355.354      
1.44974       355.341      
1.45145       355.328      
1.45315       355.315      
1.45486       355.302      
1.45656       355.289      
1.45826       355.276      
1.45997       355.263      
1.46167       355.25       
1.46337       355.237      
1.46508       355.224      
1.46678       355.212      
1.46848       355.199      
1.47019       355.186      
1.47189       355.173      
1.47359       355.16       
1.4753        355.147      
1.477         355.134      
1.47871       355.121      
1.48041       355.108      
1.48211       355.096      
1.48382       355.083      
1.48552       355.07       
1.48722       355.057      
1.48893       355.044      
1.49063       355.031      
1.49233       355.019      
1.49404       355.006      
1.49574       354.993      
1.49744       354.98       
1.49915       354.968      
1.50085       354.955      
1.50256       354.942      
1.50426       354.929      
1.50596       354.916      
1.50767       354.904      
1.50937       354.891      
1.51107       354.878      
1.51278       354.866      
1.51448       354.853      
1.51618       354.84       
1.51789       354.827      
1.51959       354.815      
1.52129       354.802      
1.523         354.789      
1.5247        354.777      
1.52641       354.764      
1.52811       354.751      
1.52981       354.739      
1.53152       354.726      
1.53322       354.714      
1.53492       354.701      
1.53663       354.688      
1.53833       354.676      
1.54003       354.663      
1.54174       354.651      
1.54344       354.638      
1.54514       354.625      
1.54685       354.613      
1.54855       354.6        
1.55026       354.588      
1.55196       354.575      
1.55366       354.563      
1.55537       354.55       
1.55707       354.538      
1.55877       354.525      
1.56048       354.513      
1.56218       354.5        
1.56388       354.488      
1.56559       354.475      
1.56729       354.463      
1.56899       354.45       
1.5707        354.438      
1.5724        354.425      
1.57411       354.413      
1.57581       354.4        
1.57751       354.388      
1.57922       354.375      
1.58092       354.363      
1.58262       354.351      
1.58433       354.338      
1.58603       354.326      
1.58773       354.313      
1.58944       354.301      
1.59114       354.289      
1.59284       354.276      
1.59455       354.264      
1.59625       354.251      
1.59796       354.239      
1.59966       354.227      
1.60136       354.214      
1.60307       354.202      
1.60477       354.19       
1.60647       354.177      
1.60818       354.165      
1.60988       354.153      
1.61158       354.141      
1.61329       354.128      
1.61499       354.116      
1.6167        354.104      
1.6184        354.091      
1.6201        354.079      
1.62181       354.067      
1.62351       354.055      
1.62521       354.042      
1.62692       354.03       
1.62862       354.018      
1.63032       354.006      
1.63203       353.993      
1.63373       353.981      
1.63543       353.969      
1.63714       353.957      
1.63884       353.945      
1.64055       353.932      
1.64225       353.92       
1.64395       353.908      
1.64566       353.896      
1.64736       353.884      
1.64906       353.872      
1.65077       353.86       
1.65247       353.847      
1.65417       353.835      
1.65588       353.823      
1.65758       353.811      
1.65928       353.799      
1.66099       353.787      
1.66269       353.775      
1.6644        353.763      
1.6661        353.751      
1.6678        353.738      
1.66951       353.726      
1.67121       353.714      
1.67291       353.702      
1.67462       353.69       
1.67632       353.678      
1.67802       353.666      
1.67973       353.654      
1.68143       353.642      
1.68313       353.63       
1.68484       353.618      
1.68654       353.606      
1.68825       353.594      
1.68995       353.582      
1.69165       353.57       
1.69336       353.558      
1.69506       353.546      
1.69676       353.534      
1.69847       353.522      
1.70017       353.51       
1.70187       353.498      
1.70358       353.486      
1.70528       353.475      
1.70698       353.463      
1.70869       353.451      
1.71039       353.439      
1.7121        353.427      
1.7138        353.415      
1.7155        353.403      
1.71721       353.391      
1.71891       353.379      
1.72061       353.367      
1.72232       353.356      
1.72402       353.344      
1.72572       353.332      
1.72743       353.32       
1.72913       353.308      
1.73083       353.296      
1.73254       353.285      
1.73424       353.273      
1.73595       353.261      
1.73765       353.249      
1.73935       353.237      
1.74106       353.225      
1.74276       353.214      
1.74446       353.202      
1.74617       353.19       
1.74787       353.178      
1.74957       353.167      
1.75128       353.155      
1.75298       353.143      
1.75468       353.131      
1.75639       353.12       
1.75809       353.108      
1.7598        353.096      
1.7615        353.084      
1.7632        353.073      
1.76491       353.061      
1.76661       353.049      
1.76831       353.038      
1.77002       353.026      
1.77172       353.014      
1.77342       353.003      
1.77513       352.991      
1.77683       352.979      
1.77853       352.968      
1.78024       352.956      
1.78194       352.944      
1.78365       352.933      
1.78535       352.921      
1.78705       352.909      
1.78876       352.898      
1.79046       352.886      
1.79216       352.875      
1.79387       352.863      
1.79557       352.851      
1.79727       352.84       
1.79898       352.828      
1.80068       352.817      
1.80239       352.805      
1.80409       352.794      
1.80579       352.782      
1.8075        352.77       
1.8092        352.759      
1.8109        352.747      
1.81261       352.736      
1.81431       352.724      
1.81601       352.713      
1.81772       352.701      
1.81942       352.69       