# Probe 0 (0 -0.027 0.035)
# Time        0            
0             300          
0.000119904   300.003      
0.000263616   300.008      
0.000435873   300.012      
0.000642437   300.018      
0.000890212   300.026      
0.00118695    300.034      
0.00154239    300.044      
0.00196861    300.057      
0.00247919    300.071      
0.0030887     300.089      
0.00381736    300.11       
0.00469174    300.135      
0.00573909    300.165      
0.0069959     300.202      
0.00849596    300.245      
0.0102902     300.297      
0.012121      300.35       
0.0139518     300.403      
0.0157826     300.456      
0.0176134     300.509      
0.0194442     300.561      
0.021275      300.614      
0.0231059     300.667      
0.0249367     300.719      
0.0267675     300.772      
0.0285983     300.824      
0.0304291     300.877      
0.0322599     300.929      
0.0340907     300.981      
0.0359215     301.034      
0.0377524     301.086      
0.0395832     301.139      
0.041414      301.191      
0.0432448     301.243      
0.0450756     301.295      
0.0469064     301.348      
0.0487372     301.4        
0.050568      301.452      
0.0523989     301.504      
0.0542297     301.556      
0.0560605     301.608      
0.0578913     301.66       
0.0597221     301.712      
0.0615529     301.764      
0.0633837     301.816      
0.0652146     301.868      
0.0670454     301.92       
0.0688762     301.972      
0.070707      302.024      
0.0725378     302.076      
0.0743686     302.128      
0.0761994     302.179      
0.0780302     302.231      
0.0798611     302.283      
0.0816919     302.334      
0.0835227     302.386      
0.0853535     302.438      
0.0871843     302.489      
0.0890151     302.541      
0.0908459     302.592      
0.0926767     302.644      
0.0945076     302.695      
0.0963384     302.746      
0.0981692     302.798      
0.1           302.849      
0.101818      302.9        
0.103636      302.951      
0.105455      303.002      
0.107273      303.052      
0.109091      303.103      
0.110909      303.154      
0.112727      303.205      
0.114545      303.255      
0.116364      303.306      
0.118182      303.357      
0.12          303.407      
0.121818      303.458      
0.123636      303.508      
0.125455      303.559      
0.127273      303.609      
0.129091      303.66       
0.130909      303.71       
0.132727      303.761      
0.134545      303.811      
0.136364      303.861      
0.138182      303.912      
0.14          303.962      
0.141818      304.012      
0.143636      304.062      
0.145455      304.112      
0.147273      304.162      
0.149091      304.213      
0.150909      304.263      
0.152727      304.313      
0.154545      304.363      
0.156364      304.413      
0.158182      304.462      
0.16          304.512      
0.161818      304.562      
0.163636      304.612      
0.165455      304.662      
0.167273      304.712      
0.169091      304.761      
0.170909      304.811      
0.172727      304.861      
0.174545      304.91       
0.176364      304.96       
0.178182      305.01       
0.18          305.059      
0.181818      305.109      
0.183636      305.158      
0.185455      305.208      
0.187273      305.257      
0.189091      305.307      
0.190909      305.356      
0.192727      305.405      
0.194545      305.455      
0.196364      305.504      
0.198182      305.553      
0.2           305.602      
0.201818      305.652      
0.203636      305.701      
0.205455      305.75       
0.207273      305.799      
0.209091      305.848      
0.210909      305.897      
0.212727      305.946      
0.214545      305.995      
0.216364      306.044      
0.218182      306.093      
0.22          306.142      
0.221818      306.191      
0.223636      306.24       
0.225455      306.289      
0.227273      306.337      
0.229091      306.386      
0.230909      306.435      
0.232727      306.484      
0.234545      306.532      
0.236364      306.581      
0.238182      306.63       
0.24          306.678      
0.241818      306.727      
0.243636      306.775      
0.245455      306.824      
0.247273      306.873      
0.249091      306.921      
0.250909      306.969      
0.252727      307.018      
0.254545      307.066      
0.256364      307.115      
0.258182      307.163      
0.26          307.211      
0.261818      307.26       
0.263636      307.308      
0.265455      307.356      
0.267273      307.404      
0.269091      307.453      
0.270909      307.501      
0.272727      307.549      
0.274545      307.597      
0.276364      307.645      
0.278182      307.693      
0.28          307.741      
0.281818      307.789      
0.283636      307.837      
0.285455      307.885      
0.287273      307.933      
0.289091      307.981      
0.290909      308.029      
0.292727      308.077      
0.294545      308.125      
0.296364      308.172      
0.298182      308.22       
0.3           308.268      
0.301818      308.316      
0.303636      308.363      
0.305455      308.411      
0.307273      308.459      
0.309091      308.507      
0.310909      308.554      
0.312727      308.602      
0.314545      308.649      
0.316364      308.697      
0.318182      308.744      
0.32          308.792      
0.321818      308.839      
0.323636      308.887      
0.325455      308.934      
0.327273      308.982      
0.329091      309.029      
0.330909      309.076      
0.332727      309.124      
0.334545      309.171      
0.336364      309.218      
0.338182      309.266      
0.34          309.313      
0.341818      309.36       
0.343636      309.407      
0.345455      309.455      
0.347273      309.502      
0.349091      309.549      
0.350909      309.596      
0.352727      309.643      
0.354545      309.69       
0.356364      309.737      
0.358182      309.784      
0.36          309.831      
0.361818      309.878      
0.363636      309.925      
0.365455      309.972      
0.367273      310.019      
0.369091      310.066      
0.370909      310.113      
0.372727      310.16       
0.374545      310.207      
0.376364      310.253      
0.378182      310.3        
0.38          310.347      
0.381818      310.394      
0.383636      310.44       
0.385455      310.487      
0.387273      310.534      
0.389091      310.581      
0.390909      310.627      
0.392727      310.674      
0.394545      310.72       
0.396364      310.767      
0.398182      310.814      
0.4           310.86       
0.401818      310.907      
0.403636      310.953      
0.405455      311          
0.407273      311.046      
0.409091      311.093      
0.410909      311.139      
0.412727      311.185      
0.414545      311.232      
0.416364      311.278      
0.418182      311.324      
0.42          311.371      
0.421818      311.417      
0.423636      311.463      
0.425455      311.51       
0.427273      311.556      
0.429091      311.602      
0.430909      311.648      
0.432727      311.694      
0.434545      311.741      
0.436364      311.787      
0.438182      311.833      
0.44          311.879      
0.441818      311.925      
0.443636      311.971      
0.445455      312.017      
0.447273      312.063      
0.449091      312.109      
0.450909      312.155      
0.452727      312.201      
0.454545      312.247      
0.456364      312.293      
0.458182      312.339      
0.46          312.385      
0.461818      312.431      
0.463636      312.477      
0.465455      312.523      
0.467273      312.568      
0.469091      312.614      
0.470909      312.66       
0.472727      312.706      
0.474545      312.751      
0.476364      312.797      
0.478182      312.843      
0.48          312.889      
0.481818      312.934      
0.483636      312.98       
0.485455      313.026      
0.487273      313.071      
0.489091      313.117      
0.490909      313.162      
0.492727      313.208      
0.494545      313.254      
0.496364      313.299      
0.498182      313.345      
0.5           313.39       
0.501818      313.436      
0.503636      313.481      
0.505455      313.526      
0.507273      313.572      
0.509091      313.617      
0.510909      313.663      
0.512727      313.708      
0.514545      313.753      
0.516364      313.799      
0.518182      313.844      
0.52          313.889      
0.521818      313.935      
0.523636      313.98       
0.525455      314.025      
0.527273      314.07       
0.529091      314.116      
0.530909      314.161      
0.532727      314.206      
0.534545      314.251      
0.536364      314.296      
0.538182      314.342      
0.54          314.387      
0.541818      314.432      
0.543636      314.477      
0.545455      314.522      
0.547273      314.567      
0.549091      314.612      
0.550909      314.657      
0.552727      314.702      
0.554545      314.747      
0.556364      314.792      
0.558182      314.837      
0.56          314.882      
0.561818      314.927      
0.563636      314.972      
0.565455      315.017      
0.567273      315.061      
0.569091      315.106      
0.570909      315.151      
0.572727      315.196      
0.574545      315.241      
0.576364      315.286      
0.578182      315.33       
0.58          315.375      
0.581818      315.42       
0.583636      315.465      
0.585455      315.509      
0.587273      315.554      
0.589091      315.599      
0.590909      315.643      
0.592727      315.688      
0.594545      315.733      
0.596364      315.777      
0.598182      315.822      
0.6           315.866      
0.601818      315.911      
0.603636      315.956      
0.605455      316          
0.607273      316.045      
0.609091      316.089      
0.610909      316.134      
0.612727      316.178      
0.614545      316.223      
0.616364      316.267      
0.618182      316.311      
0.62          316.356      
0.621818      316.4        
0.623636      316.445      
0.625455      316.489      
0.627273      316.533      
0.629091      316.578      
0.630909      316.622      
0.632727      316.666      
0.634545      316.711      
0.636364      316.755      
0.638182      316.799      
0.64          316.843      
0.641818      316.888      
0.643636      316.932      
0.645455      316.976      
0.647273      317.02       
0.649091      317.064      
0.650909      317.109      
0.652727      317.153      
0.654545      317.197      
0.656364      317.241      
0.658182      317.285      
0.66          317.329      
0.661818      317.373      
0.663636      317.417      
0.665455      317.461      
0.667273      317.505      
0.669091      317.549      
0.670909      317.593      
0.672727      317.637      
0.674545      317.681      
0.676364      317.725      
0.678182      317.769      
0.68          317.813      
0.681818      317.857      
0.683636      317.901      
0.685455      317.945      
0.687273      317.989      
0.689091      318.033      
0.690909      318.076      
0.692727      318.12       
0.694545      318.164      
0.696364      318.208      
0.698182      318.252      
0.7           318.295      
0.701818      318.339      
0.703636      318.383      
0.705455      318.427      
0.707273      318.47       
0.709091      318.514      
0.710909      318.558      
0.712727      318.601      
0.714545      318.645      
0.716364      318.689      
0.718182      318.732      
0.72          318.776      
0.721818      318.82       
0.723636      318.863      
0.725455      318.907      
0.727273      318.95       
0.729091      318.994      
0.730909      319.037      
0.732727      319.081      
0.734545      319.124      
0.736364      319.168      
0.738182      319.211      
0.74          319.255      
0.741818      319.298      
0.743636      319.342      
0.745455      319.385      
0.747273      319.428      
0.749091      319.472      
0.750909      319.515      
0.752727      319.559      
0.754545      319.602      
0.756364      319.645      
0.758182      319.689      
0.76          319.732      
0.761818      319.775      
0.763636      319.818      
0.765455      319.862      
0.767273      319.905      
0.769091      319.948      
0.770909      319.991      
0.772727      320.035      
0.774545      320.078      
0.776364      320.121      
0.778182      320.164      
0.78          320.207      
0.781818      320.251      
0.783636      320.294      
0.785455      320.337      
0.787273      320.38       
0.789091      320.423      
0.790909      320.466      
0.792727      320.509      
0.794545      320.552      
0.796364      320.595      
0.798182      320.638      
0.8           320.681      
0.801818      320.724      
0.803636      320.767      
0.805455      320.81       
0.807273      320.853      
0.809091      320.896      
0.810909      320.939      
0.812727      320.982      
0.814545      321.025      
0.816364      321.068      
0.818182      321.111      
0.82          321.154      
0.821818      321.197      
0.823636      321.239      
0.825455      321.282      
0.827273      321.325      
0.829091      321.368      
0.830909      321.411      
0.832727      321.454      
0.834545      321.496      
0.836364      321.539      
0.838182      321.582      
0.84          321.625      
0.841818      321.667      
0.843636      321.71       
0.845455      321.753      
0.847273      321.795      
0.849091      321.838      
0.850909      321.881      
0.852727      321.923      
0.854545      321.966      
0.856364      322.009      
0.858182      322.051      
0.86          322.094      
0.861818      322.136      
0.863636      322.179      
0.865455      322.221      
0.867273      322.264      
0.869091      322.307      
0.870909      322.349      
0.872727      322.392      
0.874545      322.434      
0.876364      322.477      
0.878182      322.519      
0.88          322.562      
0.881818      322.604      
0.883636      322.646      
0.885455      322.689      
0.887273      322.731      
0.889091      322.774      
0.890909      322.816      
0.892727      322.858      
0.894545      322.901      
0.896364      322.943      
0.898182      322.985      
0.9           323.028      
0.901818      323.07       
0.903636      323.112      
0.905455      323.155      
0.907273      323.197      
0.909091      323.239      
0.910909      323.281      
0.912727      323.324      
0.914545      323.366      
0.916364      323.408      
0.918182      323.45       
0.92          323.493      
0.921818      323.535      
0.923636      323.577      
0.925455      323.619      
0.927273      323.661      
0.929091      323.703      
0.930909      323.745      
0.932727      323.788      
0.934545      323.83       
0.936364      323.872      
0.938182      323.914      
0.94          323.956      
0.941818      323.998      
0.943636      324.04       
0.945455      324.082      
0.947273      324.124      
0.949091      324.166      
0.950909      324.208      
0.952727      324.25       
0.954545      324.292      
0.956364      324.334      
0.958182      324.376      
0.96          324.418      
0.961818      324.46       
0.963636      324.501      
0.965455      324.543      
0.967273      324.585      
0.969091      324.627      
0.970909      324.669      
0.972727      324.711      
0.974545      324.753      
0.976364      324.794      
0.978182      324.836      
0.98          324.878      
0.981818      324.92       
0.983636      324.962      
0.985455      325.003      
0.987273      325.045      
0.989091      325.087      
0.990909      325.129      
0.992727      325.17       
0.994545      325.212      
0.996364      325.254      
0.998182      325.295      
1             325.337      
1.00182       325.379      
1.00364       325.42       
1.00545       325.462      
1.00727       325.504      
1.00909       325.545      
1.01091       325.587      
1.01273       325.628      
1.01455       325.67       
1.01636       325.712      
1.01818       325.753      
1.02          325.795      
1.02182       325.836      
1.02364       325.878      
1.02545       325.919      
1.02727       325.961      
1.02909       326.002      
1.03091       326.044      
1.03273       326.085      
1.03455       326.127      
1.03636       326.168      
1.03818       326.21       
1.04          326.251      
1.04182       326.292      
1.04364       326.334      
1.04545       326.375      
1.04727       326.416      
1.04909       326.458      
1.05091       326.499      
1.05273       326.541      
1.05455       326.582      
1.05636       326.623      
1.05818       326.664      
1.06          326.706      
1.06182       326.747      
1.06364       326.788      
1.06545       326.83       
1.06727       326.871      
1.06909       326.912      
1.07091       326.953      
1.07273       326.995      
1.07455       327.036      
1.07636       327.077      
1.07818       327.118      
1.08          327.159      
1.08182       327.2        
1.08364       327.242      
1.08545       327.283      
1.08727       327.324      
1.08909       327.365      
1.09091       327.406      
1.09273       327.447      
1.09455       327.488      
1.09636       327.529      
1.09818       327.57       
1.1           327.611      
1.10182       327.652      
1.10364       327.693      
1.10545       327.735      
1.10727       327.776      
1.10909       327.817      
1.11091       327.857      
1.11273       327.898      
1.11455       327.939      
1.11636       327.98       
1.11818       328.021      
1.12          328.062      
1.12182       328.103      
1.12364       328.144      
1.12545       328.185      
1.12727       328.226      
1.12909       328.267      
1.13091       328.308      
1.13273       328.348      
1.13455       328.389      
1.13636       328.43       
1.13818       328.471      
1.14          328.512      
1.14182       328.553      
1.14364       328.593      
1.14545       328.634      
1.14727       328.675      
1.14909       328.716      
1.15091       328.756      
1.15273       328.797      
1.15455       328.838      
1.15636       328.879      
1.15818       328.919      
1.16          328.96       
1.16182       329.001      
1.16364       329.041      
1.16545       329.082      
1.16727       329.123      
1.16909       329.163      
1.17091       329.204      
1.17273       329.244      
1.17455       329.285      
1.17636       329.326      
1.17818       329.366      
1.18          329.407      
1.18182       329.447      
1.18364       329.488      
1.18545       329.528      
1.18727       329.569      
1.18909       329.61       
1.19091       329.65       
1.19273       329.691      
1.19455       329.731      
1.19636       329.772      
1.19818       329.812      
1.2           329.852      
1.20182       329.893      
1.20364       329.933      
1.20545       329.974      
1.20727       330.014      
1.20909       330.055      
1.21091       330.095      
1.21273       330.135      
1.21455       330.176      
1.21636       330.216      
1.21818       330.256      
1.22          330.297      
1.22182       330.337      
1.22364       330.377      
1.22545       330.418      
1.22727       330.458      
1.22909       330.498      
1.23091       330.539      
1.23273       330.579      
1.23455       330.619      
1.23636       330.659      
1.23818       330.7        
1.24          330.74       
1.24182       330.78       
1.24364       330.82       
1.24545       330.86       
1.24727       330.901      
1.24909       330.941      
1.25091       330.981      
1.25273       331.021      
1.25455       331.061      
1.25636       331.101      
1.25818       331.142      
1.26          331.182      
1.26182       331.222      
1.26364       331.262      
1.26545       331.302      
1.26727       331.342      
1.26909       331.382      
1.27091       331.422      
1.27273       331.462      
1.27455       331.502      
1.27636       331.542      
1.27818       331.582      
1.28          331.622      
1.28182       331.662      
1.28364       331.702      
1.28545       331.742      
1.28727       331.782      
1.28909       331.822      
1.29091       331.862      
1.29273       331.902      
1.29455       331.942      
1.29636       331.982      
1.29818       332.022      
1.3           332.062      
1.30182       332.101      
1.30364       332.141      
1.30545       332.181      
1.30727       332.221      
1.30909       332.261      
1.31091       332.301      
1.31273       332.341      
1.31455       332.38       
1.31636       332.42       
1.31818       332.46       
1.32          332.5        
1.32182       332.539      
1.32364       332.579      
1.32545       332.619      
1.32727       332.659      
1.32909       332.698      
1.33091       332.738      
1.33273       332.778      
1.33455       332.818      
1.33636       332.857      
1.33818       332.897      
1.34          332.937      
1.34182       332.976      
1.34364       333.016      
1.34545       333.056      
1.34727       333.095      
1.34909       333.135      
1.35091       333.174      
1.35273       333.214      
1.35455       333.254      
1.35636       333.293      
1.35818       333.333      
1.36          333.372      
1.36182       333.412      
1.36364       333.451      
1.36545       333.491      
1.36727       333.53       
1.36909       333.57       
1.37091       333.609      
1.37273       333.649      
1.37455       333.688      
1.37636       333.728      
1.37818       333.767      
1.38          333.807      
1.38182       333.846      
1.38364       333.886      
1.38545       333.925      
1.38727       333.964      
1.38909       334.004      
1.39091       334.043      
1.39273       334.083      
1.39455       334.122      
1.39636       334.161      
1.39818       334.201      
1.4           334.24       
1.40182       334.279      
1.40364       334.319      
1.40545       334.358      
1.40727       334.397      
1.40909       334.437      
1.41091       334.476      
1.41273       334.515      
1.41455       334.554      
1.41636       334.594      
1.41818       334.633      
1.42          334.672      
1.42182       334.711      
1.42364       334.751      
1.42545       334.79       
1.42727       334.829      
1.42909       334.868      
1.43091       334.907      
1.43273       334.947      
1.43455       334.986      
1.43636       335.025      
1.43818       335.064      
1.44          335.103      
1.44182       335.142      
1.44364       335.181      
1.44545       335.22       
1.44727       335.26       
1.44909       335.299      
1.45091       335.338      
1.45273       335.377      
1.45455       335.416      
1.45636       335.455      
1.45818       335.494      
1.46          335.533      
1.46182       335.572      
1.46364       335.611      
1.46545       335.65       
1.46727       335.689      
1.46909       335.728      
1.47091       335.767      
1.47273       335.806      
1.47455       335.845      
1.47636       335.884      
1.47818       335.923      
1.48          335.962      
1.48182       336          
1.48364       336.039      
1.48545       336.078      
1.48727       336.117      
1.48909       336.156      
1.49091       336.195      
1.49273       336.234      
1.49455       336.273      
1.49636       336.311      
1.49818       336.35       
1.5           336.389      
1.50182       336.428      
1.50364       336.467      
1.50545       336.505      
1.50727       336.544      
1.50909       336.583      
1.51091       336.622      
1.51273       336.66       
1.51455       336.699      
1.51636       336.738      
1.51818       336.777      
1.52          336.815      
1.52182       336.854      
1.52364       336.893      
1.52545       336.931      
1.52727       336.97       
1.52909       337.009      
1.53091       337.047      
1.53273       337.086      
1.53455       337.125      
1.53636       337.163      
1.53818       337.202      
1.54          337.241      
1.54182       337.279      
1.54364       337.318      
1.54545       337.356      
1.54727       337.395      
1.54909       337.433      
1.55091       337.472      
1.55273       337.511      
1.55455       337.549      
1.55636       337.588      
1.55818       337.626      
1.56          337.665      
1.56182       337.703      
1.56364       337.742      
1.56545       337.78       
1.56727       337.819      
1.56909       337.857      
1.57091       337.896      
1.57273       337.934      
1.57455       337.972      
1.57636       338.011      
1.57818       338.049      
1.58          338.088      
1.58182       338.126      
1.58364       338.164      
1.58545       338.203      
1.58727       338.241      
1.58909       338.28       
1.59091       338.318      
1.59273       338.356      
1.59455       338.395      
1.59636       338.433      
1.59818       338.471      
1.6           338.509      
1.60182       338.548      
1.60364       338.586      
1.60545       338.624      
1.60727       338.663      
1.60909       338.701      
1.61091       338.739      
1.61273       338.777      
1.61455       338.816      
1.61636       338.854      
1.61818       338.892      
1.62          338.93       
1.62182       338.968      
1.62364       339.007      
1.62545       339.045      
1.62727       339.083      
1.62909       339.121      
1.63091       339.159      
1.63273       339.197      
1.63455       339.236      
1.63636       339.274      
1.63818       339.312      
1.64          339.35       
1.64182       339.388      
1.64364       339.426      
1.64545       339.464      
1.64727       339.502      
1.64909       339.54       
1.65091       339.578      
1.65273       339.616      
1.65455       339.654      
1.65636       339.692      
1.65818       339.73       
1.66          339.768      
1.66182       339.806      
1.66364       339.844      
1.66545       339.882      
1.66727       339.92       
1.66909       339.958      
1.67091       339.996      
1.67273       340.034      
1.67455       340.072      
1.67636       340.11       
1.67818       340.148      
1.68          340.186      
1.68182       340.224      
1.68364       340.262      
1.68545       340.3        
1.68727       340.338      
1.68909       340.375      
1.69091       340.413      
1.69273       340.451      
1.69455       340.489      
1.69636       340.527      
1.69818       340.565      
1.7           340.602      
1.70182       340.64       
1.70364       340.678      
1.70545       340.716      
1.70727       340.754      
1.70909       340.791      
1.71091       340.829      
1.71273       340.867      
1.71455       340.905      
1.71636       340.942      
1.71818       340.98       
1.72          341.018      
1.72182       341.055      
1.72364       341.093      
1.72545       341.131      
1.72727       341.169      
1.72909       341.206      
1.73091       341.244      
1.73273       341.282      
1.73455       341.319      
1.73636       341.357      
1.73818       341.394      
1.74          341.432      
1.74182       341.47       
1.74364       341.507      
1.74545       341.545      
1.74727       341.582      
1.74909       341.62       
1.75091       341.658      
1.75273       341.695      
1.75455       341.733      
1.75636       341.77       
1.75818       341.808      
1.76          341.845      
1.76182       341.883      
1.76364       341.92       
1.76545       341.958      
1.76727       341.995      
1.76909       342.033      
1.77091       342.07       
1.77273       342.108      
1.77455       342.145      
1.77636       342.183      
1.77818       342.22       
1.78          342.257      
1.78182       342.295      
1.78364       342.332      
1.78545       342.37       
1.78727       342.407      
1.78909       342.444      
1.79091       342.482      
1.79273       342.519      
1.79455       342.557      
1.79636       342.594      
1.79818       342.631      
1.8           342.669      
1.80182       342.706      
1.80364       342.743      
1.80545       342.781      
1.80727       342.818      
1.80909       342.855      
1.81091       342.892      
1.81273       342.93       
1.81455       342.967      
1.81636       343.004      
1.81818       343.041      
1.82          343.079      
1.82182       343.116      
1.82364       343.153      
1.82545       343.19       
1.82727       343.228      
1.82909       343.265      
1.83091       343.302      
1.83273       343.339      
1.83455       343.376      
1.83636       343.414      
1.83818       343.451      
1.84          343.488      
1.84182       343.525      
1.84364       343.562      
1.84545       343.599      
1.84727       343.636      
1.84909       343.673      
1.85091       343.711      
1.85273       343.748      
1.85455       343.785      
1.85636       343.822      
1.85818       343.859      
1.86          343.896      
1.86182       343.933      
1.86364       343.97       
1.86545       344.007      
1.86727       344.044      
1.86909       344.081      
1.87091       344.118      
1.87273       344.155      
1.87455       344.192      
1.87636       344.229      
1.87818       344.266      
1.88          344.303      
1.88182       344.34       
1.88364       344.377      
1.88545       344.414      
1.88727       344.451      
1.88909       344.488      
1.89091       344.525      
1.89273       344.561      
1.89455       344.598      
1.89636       344.635      
1.89818       344.672      
1.9           344.709      
1.90182       344.746      
1.90364       344.783      
1.90545       344.82       
1.90727       344.856      
1.90909       344.893      
1.91091       344.93       
1.91273       344.967      
1.91455       345.004      
1.91636       345.04       
1.91818       345.077      
1.92          345.114      
1.92182       345.151      
1.92364       345.188      