# Probe 0 (0 -0.027 0.035)
# Time        0            
0             300          
0.00119904    300          
0.00263616    300.001      
0.00434106    300.001      
0.00604596    300.002      
0.00775085    300.002      
0.00945575    300.003      
0.0111606     300.003      
0.0128655     300.004      
0.0145704     300.004      
0.0162753     300.005      
0.0179802     300.005      
0.0196851     300.006      
0.02139       300.006      
0.0230949     300.007      
0.0247998     300.007      
0.0265047     300.008      
0.0282096     300.008      
0.0299145     300.009      
0.0316194     300.009      
0.0333243     300.01       
0.0350292     300.01       
0.0367341     300.011      
0.038439      300.011      
0.0401439     300.012      
0.0418488     300.012      
0.0435537     300.012      
0.0452586     300.013      
0.0469634     300.013      
0.0486683     300.014      
0.0503732     300.014      
0.0520781     300.015      
0.053783      300.015      
0.0554879     300.016      
0.0571928     300.016      
0.0588977     300.017      
0.0606026     300.017      
0.0623075     300.018      
0.0640124     300.018      
0.0657173     300.019      
0.0674222     300.019      
0.0691271     300.02       
0.070832      300.02       
0.0725369     300.021      
0.0742418     300.021      
0.0759467     300.022      
0.0776516     300.022      
0.0793565     300.023      
0.0810614     300.023      
0.0827663     300.024      
0.0844711     300.024      
0.086176      300.025      
0.0878809     300.025      
0.0895858     300.026      
0.0912907     300.026      
0.0929956     300.027      
0.0947005     300.027      
0.0964054     300.028      
0.0981103     300.028      
0.0998152     300.028      
0.10152       300.029      
0.103225      300.029      
0.10493       300.03       
0.106635      300.03       
0.10834       300.031      
0.110045      300.031      
0.111749      300.032      
0.113454      300.032      
0.115159      300.033      
0.116864      300.033      
0.118569      300.034      
0.120274      300.034      
0.121979      300.035      
0.123684      300.035      
0.125389      300.036      
0.127094      300.036      
0.128798      300.037      
0.130503      300.037      
0.132208      300.038      
0.133913      300.038      
0.135618      300.039      
0.137323      300.039      
0.139028      300.039      
0.140733      300.04       
0.142438      300.04       
0.144142      300.041      
0.145847      300.041      
0.147552      300.042      
0.149257      300.042      
0.150962      300.043      
0.152667      300.043      
0.154372      300.044      
0.156077      300.044      
0.157782      300.045      
0.159487      300.045      
0.161191      300.046      
0.162896      300.046      
0.164601      300.047      
0.166306      300.047      
0.168011      300.047      
0.169716      300.048      
0.171421      300.048      
0.173126      300.049      
0.174831      300.049      
0.176535      300.05       
0.17824       300.05       
0.179945      300.051      
0.18165       300.051      
0.183355      300.052      
0.18506       300.052      
0.186765      300.053      
0.18847       300.053      
0.190175      300.054      
0.19188       300.054      
0.193584      300.055      
0.195289      300.055      
0.196994      300.055      
0.198699      300.056      
0.200404      300.056      
0.202109      300.057      
0.203814      300.057      
0.205519      300.058      
0.207224      300.058      
0.208929      300.059      
0.210633      300.059      
0.212338      300.06       
0.214043      300.06       
0.215748      300.061      
0.217453      300.061      
0.219158      300.061      
0.220863      300.062      
0.222568      300.062      
0.224273      300.063      
0.225977      300.063      
0.227682      300.064      
0.229387      300.064      
0.231092      300.065      
0.232797      300.065      
0.234502      300.066      
0.236207      300.066      
0.237912      300.067      
0.239617      300.067      
0.241322      300.067      
0.243026      300.068      
0.244731      300.068      
0.246436      300.069      
0.248141      300.069      
0.249846      300.07       
0.251551      300.07       
0.253256      300.071      
0.254961      300.071      
0.256666      300.072      
0.25837       300.072      
0.260075      300.073      
0.26178       300.073      
0.263485      300.073      
0.26519       300.074      
0.266895      300.074      
0.2686        300.075      
0.270305      300.075      
0.27201       300.076      
0.273715      300.076      
0.275419      300.077      
0.277124      300.077      
0.278829      300.078      
0.280534      300.078      
0.282239      300.078      
0.283944      300.079      
0.285649      300.079      
0.287354      300.08       
0.289059      300.08       
0.290763      300.081      
0.292468      300.081      
0.294173      300.082      
0.295878      300.082      
0.297583      300.083      
0.299288      300.083      
0.300993      300.083      
0.302698      300.084      
0.304403      300.084      
0.306108      300.085      
0.307812      300.085      
0.309517      300.086      
0.311222      300.086      
0.312927      300.087      
0.314632      300.087      
0.316337      300.088      
0.318042      300.088      
0.319747      300.088      
0.321452      300.089      
0.323157      300.089      
0.324861      300.09       
0.326566      300.09       
0.328271      300.091      
0.329976      300.091      
0.331681      300.092      
0.333386      300.092      
0.335091      300.092      
0.336796      300.093      
0.338501      300.093      
0.340205      300.094      
0.34191       300.094      
0.343615      300.095      
0.34532       300.095      
0.347025      300.096      
0.34873       300.096      
0.350435      300.096      
0.35214       300.097      
0.353845      300.097      
0.35555       300.098      
0.357254      300.098      
0.358959      300.099      
0.360664      300.099      
0.362369      300.1        
0.364074      300.1        
0.365779      300.101      
0.367484      300.101      
0.369189      300.101      
0.370894      300.102      
0.372598      300.102      
0.374303      300.103      
0.376008      300.103      
0.377713      300.104      
0.379418      300.104      
0.381123      300.104      
0.382828      300.105      
0.384533      300.105      
0.386238      300.106      
0.387943      300.106      
0.389647      300.107      
0.391352      300.107      
0.393057      300.108      
0.394762      300.108      
0.396467      300.108      
0.398172      300.109      
0.399877      300.109      
0.401582      300.11       
0.403287      300.11       
0.404991      300.111      
0.406696      300.111      
0.408401      300.112      
0.410106      300.112      
0.411811      300.112      
0.413516      300.113      
0.415221      300.113      
0.416926      300.114      
0.418631      300.114      
0.420336      300.115      
0.42204       300.115      
0.423745      300.116      
0.42545       300.116      
0.427155      300.116      
0.42886       300.117      
0.430565      300.117      
0.43227       300.118      
0.433975      300.118      
0.43568       300.119      
0.437385      300.119      
0.439089      300.119      
0.440794      300.12       
0.442499      300.12       
0.444204      300.121      
0.445909      300.121      
0.447614      300.122      
0.449319      300.122      
0.451024      300.123      
0.452729      300.123      
0.454433      300.123      
0.456138      300.124      
0.457843      300.124      
0.459548      300.125      
0.461253      300.125      
0.462958      300.126      
0.464663      300.126      
0.466368      300.126      
0.468073      300.127      
0.469778      300.127      
0.471482      300.128      
0.473187      300.128      
0.474892      300.129      
0.476597      300.129      
0.478302      300.129      
0.480007      300.13       
0.481712      300.13       
0.483417      300.131      
0.485122      300.131      
0.486826      300.132      
0.488531      300.132      
0.490236      300.132      
0.491941      300.133      
0.493646      300.133      
0.495351      300.134      
0.497056      300.134      
0.498761      300.135      
0.500466      300.135      
0.502171      300.136      
0.503875      300.136      
0.50558       300.136      
0.507285      300.137      
0.50899       300.137      
0.510695      300.138      
0.5124        300.138      
0.514105      300.139      
0.51581       300.139      
0.517515      300.139      
0.519219      300.14       
0.520924      300.14       
0.522629      300.141      
0.524334      300.141      
0.526039      300.142      
0.527744      300.142      
0.529449      300.142      
0.531154      300.143      
0.532859      300.143      
0.534564      300.144      
0.536268      300.144      
0.537973      300.145      
0.539678      300.145      
0.541383      300.145      
0.543088      300.146      
0.544793      300.146      
0.546498      300.147      
0.548203      300.147      
0.549908      300.148      
0.551612      300.148      
0.553317      300.148      
0.555022      300.149      
0.556727      300.149      
0.558432      300.15       
0.560137      300.15       
0.561842      300.151      
0.563547      300.151      
0.565252      300.151      
0.566957      300.152      
0.568661      300.152      
0.570366      300.153      
0.572071      300.153      
0.573776      300.153      
0.575481      300.154      
0.577186      300.154      
0.578891      300.155      
0.580596      300.155      
0.582301      300.156      
0.584006      300.156      
0.58571       300.156      
0.587415      300.157      
0.58912       300.157      
0.590825      300.158      
0.59253       300.158      
0.594235      300.159      
0.59594       300.159      
0.597645      300.159      
0.59935       300.16       
0.601054      300.16       
0.602759      300.161      
0.604464      300.161      
0.606169      300.162      
0.607874      300.162      
0.609579      300.162      
0.611284      300.163      
0.612989      300.163      
0.614694      300.164      
0.616399      300.164      
0.618103      300.164      
0.619808      300.165      
0.621513      300.165      
0.623218      300.166      
0.624923      300.166      
0.626628      300.167      
0.628333      300.167      
0.630038      300.167      
0.631743      300.168      
0.633447      300.168      
0.635152      300.169      
0.636857      300.169      
0.638562      300.17       
0.640267      300.17       
0.641972      300.17       
0.643677      300.171      
0.645382      300.171      
0.647087      300.172      
0.648792      300.172      
0.650496      300.172      
0.652201      300.173      
0.653906      300.173      
0.655611      300.174      
0.657316      300.174      
0.659021      300.175      
0.660726      300.175      
0.662431      300.175      
0.664136      300.176      
0.66584       300.176      
0.667545      300.177      
0.66925       300.177      
0.670955      300.177      
0.67266       300.178      
0.674365      300.178      
0.67607       300.179      
0.677775      300.179      
0.67948       300.18       
0.681185      300.18       
0.682889      300.18       
0.684594      300.181      
0.686299      300.181      
0.688004      300.182      
0.689709      300.182      
0.691414      300.182      
0.693119      300.183      
0.694824      300.183      
0.696529      300.184      
0.698234      300.184      
0.699938      300.185      
0.701643      300.185      
0.703348      300.185      
0.705053      300.186      
0.706758      300.186      
0.708463      300.187      
0.710168      300.187      
0.711873      300.187      
0.713578      300.188      
0.715282      300.188      
0.716987      300.189      
0.718692      300.189      
0.720397      300.19       
0.722102      300.19       
0.723807      300.19       
0.725512      300.191      
0.727217      300.191      
0.728922      300.192      
0.730627      300.192      
0.732331      300.192      
0.734036      300.193      
0.735741      300.193      
0.737446      300.194      
0.739151      300.194      
0.740856      300.194      
0.742561      300.195      
0.744266      300.195      
0.745971      300.196      
0.747675      300.196      
0.74938       300.197      
0.751085      300.197      
0.75279       300.197      
0.754495      300.198      
0.7562        300.198      
0.757905      300.199      
0.75961       300.199      
0.761315      300.199      
0.76302       300.2        
0.764724      300.2        
0.766429      300.201      
0.768134      300.201      
0.769839      300.201      
0.771544      300.202      
0.773249      300.202      
0.774954      300.203      
0.776659      300.203      
0.778364      300.204      
0.780068      300.204      
0.781773      300.204      
0.783478      300.205      
0.785183      300.205      
0.786888      300.206      
0.788593      300.206      
0.790298      300.206      
0.792003      300.207      
0.793708      300.207      
0.795413      300.208      
0.797117      300.208      
0.798822      300.208      
0.800527      300.209      
0.802232      300.209      
0.803937      300.21       
0.805642      300.21       
0.807347      300.21       
0.809052      300.211      
0.810757      300.211      
0.812462      300.212      
0.814166      300.212      
0.815871      300.212      
0.817576      300.213      
0.819281      300.213      
0.820986      300.214      
0.822691      300.214      
0.824396      300.215      
0.826101      300.215      
0.827806      300.215      
0.82951       300.216      
0.831215      300.216      
0.83292       300.217      
0.834625      300.217      
0.83633       300.217      
0.838035      300.218      
0.83974       300.218      
0.841445      300.219      
0.84315       300.219      
0.844855      300.219      
0.846559      300.22       
0.848264      300.22       
0.849969      300.221      
0.851674      300.221      
0.853379      300.221      
0.855084      300.222      
0.856789      300.222      
0.858494      300.223      
0.860199      300.223      
0.861903      300.223      
0.863608      300.224      
0.865313      300.224      
0.867018      300.225      
0.868723      300.225      
0.870428      300.225      
0.872133      300.226      
0.873838      300.226      
0.875543      300.227      
0.877248      300.227      
0.878952      300.227      
0.880657      300.228      
0.882362      300.228      
0.884067      300.229      
0.885772      300.229      
0.887477      300.229      
0.889182      300.23       
0.890887      300.23       
0.892592      300.231      
0.894296      300.231      
0.896001      300.231      
0.897706      300.232      
0.899411      300.232      
0.901116      300.233      
0.902821      300.233      
0.904526      300.233      
0.906231      300.234      
0.907936      300.234      
0.909641      300.235      
0.911345      300.235      
0.91305       300.235      
0.914755      300.236      
0.91646       300.236      
0.918165      300.237      
0.91987       300.237      
0.921575      300.237      
0.92328       300.238      
0.924985      300.238      
0.926689      300.239      
0.928394      300.239      
0.930099      300.239      
0.931804      300.24       
0.933509      300.24       
0.935214      300.241      
0.936919      300.241      
0.938624      300.241      
0.940329      300.242      
0.942034      300.242      
0.943738      300.243      
0.945443      300.243      
0.947148      300.243      
0.948853      300.244      
0.950558      300.244      
0.952263      300.245      
0.953968      300.245      
0.955673      300.245      
0.957378      300.246      
0.959083      300.246      
0.960787      300.247      
0.962492      300.247      
0.964197      300.247      
0.965902      300.248      
0.967607      300.248      
0.969312      300.249      
0.971017      300.249      
0.972722      300.249      
0.974427      300.25       
0.976131      300.25       
0.977836      300.251      
0.979541      300.251      
0.981246      300.251      
0.982951      300.252      
0.984656      300.252      
0.986361      300.253      
0.988066      300.253      
0.989771      300.253      
0.991476      300.254      
0.99318       300.254      
0.994885      300.255      
0.99659       300.255      
0.998295      300.255      
1             300.256      
1.0017        300.256      
1.00341       300.257      
1.00511       300.257      
1.00681       300.257      
1.00852       300.258      
1.01022       300.258      
1.01193       300.259      
1.01363       300.259      
1.01533       300.259      
1.01704       300.26       
1.01874       300.26       
1.02044       300.26       
1.02215       300.261      
1.02385       300.261      
1.02555       300.262      
1.02726       300.262      
1.02896       300.262      
1.03066       300.263      
1.03237       300.263      
1.03407       300.264      
1.03578       300.264      
1.03748       300.264      
1.03918       300.265      
1.04089       300.265      
1.04259       300.266      
1.04429       300.266      
1.046         300.266      
1.0477        300.267      
1.0494        300.267      
1.05111       300.268      
1.05281       300.268      
1.05451       300.268      
1.05622       300.269      
1.05792       300.269      
1.05963       300.27       
1.06133       300.27       
1.06303       300.27       
1.06474       300.271      
1.06644       300.271      
1.06814       300.271      
1.06985       300.272      
1.07155       300.272      
1.07325       300.273      
1.07496       300.273      
1.07666       300.273      
1.07836       300.274      
1.08007       300.274      
1.08177       300.275      
1.08348       300.275      
1.08518       300.275      
1.08688       300.276      
1.08859       300.276      
1.09029       300.277      
1.09199       300.277      
1.0937        300.277      
1.0954        300.278      
1.0971        300.278      
1.09881       300.278      
1.10051       300.279      
1.10221       300.279      
1.10392       300.28       
1.10562       300.28       
1.10733       300.28       
1.10903       300.281      
1.11073       300.281      
1.11244       300.282      
1.11414       300.282      
1.11584       300.282      
1.11755       300.283      
1.11925       300.283      
1.12095       300.284      
1.12266       300.284      
1.12436       300.284      
1.12606       300.285      
1.12777       300.285      
1.12947       300.285      
1.13118       300.286      
1.13288       300.286      
1.13458       300.287      
1.13629       300.287      
1.13799       300.287      
1.13969       300.288      
1.1414        300.288      
1.1431        300.289      
1.1448        300.289      
1.14651       300.289      
1.14821       300.29       
1.14991       300.29       
1.15162       300.29       
1.15332       300.291      
1.15503       300.291      
1.15673       300.292      
1.15843       300.292      
1.16014       300.292      
1.16184       300.293      
1.16354       300.293      
1.16525       300.294      
1.16695       300.294      
1.16865       300.294      
1.17036       300.295      
1.17206       300.295      
1.17376       300.295      
1.17547       300.296      
1.17717       300.296      
1.17888       300.297      
1.18058       300.297      
1.18228       300.297      
1.18399       300.298      
1.18569       300.298      
1.18739       300.299      
1.1891        300.299      
1.1908        300.299      
1.1925        300.3        
1.19421       300.3        
1.19591       300.3        
1.19761       300.301      
1.19932       300.301      
1.20102       300.302      
1.20273       300.302      
1.20443       300.302      
1.20613       300.303      
1.20784       300.303      
1.20954       300.304      
1.21124       300.304      
1.21295       300.304      
1.21465       300.305      
1.21635       300.305      
1.21806       300.305      
1.21976       300.306      
1.22147       300.306      
1.22317       300.307      
1.22487       300.307      
1.22658       300.307      
1.22828       300.308      
1.22998       300.308      
1.23169       300.308      
1.23339       300.309      
1.23509       300.309      
1.2368        300.31       
1.2385        300.31       
1.2402        300.31       
1.24191       300.311      
1.24361       300.311      
1.24532       300.312      
1.24702       300.312      
1.24872       300.312      
1.25043       300.313      
1.25213       300.313      
1.25383       300.313      
1.25554       300.314      
1.25724       300.314      
1.25894       300.315      
1.26065       300.315      
1.26235       300.315      
1.26405       300.316      
1.26576       300.316      
1.26746       300.316      
1.26917       300.317      
1.27087       300.317      
1.27257       300.318      
1.27428       300.318      
1.27598       300.318      
1.27768       300.319      
1.27939       300.319      
1.28109       300.32       
1.28279       300.32       
1.2845        300.32       
1.2862        300.321      
1.2879        300.321      
1.28961       300.321      
1.29131       300.322      
1.29302       300.322      
1.29472       300.323      
1.29642       300.323      
1.29813       300.323      
1.29983       300.324      
1.30153       300.324      
1.30324       300.324      
1.30494       300.325      
1.30664       300.325      
1.30835       300.326      
1.31005       300.326      
1.31175       300.326      
1.31346       300.327      
1.31516       300.327      
1.31687       300.327      
1.31857       300.328      
1.32027       300.328      
1.32198       300.329      
1.32368       300.329      
1.32538       300.329      
1.32709       300.33       
1.32879       300.33       
1.33049       300.33       
1.3322        300.331      
1.3339        300.331      
1.3356        300.332      
1.33731       300.332      
1.33901       300.332      
1.34072       300.333      
1.34242       300.333      
1.34412       300.333      
1.34583       300.334      
1.34753       300.334      
1.34923       300.335      
1.35094       300.335      
1.35264       300.335      
1.35434       300.336      
1.35605       300.336      
1.35775       300.336      
1.35945       300.337      
1.36116       300.337      
1.36286       300.338      
1.36457       300.338      
1.36627       300.338      
1.36797       300.339      
1.36968       300.339      
1.37138       300.339      
1.37308       300.34       
1.37479       300.34       
1.37649       300.341      
1.37819       300.341      
1.3799        300.341      
1.3816        300.342      
1.3833        300.342      
1.38501       300.342      
1.38671       300.343      
1.38842       300.343      
1.39012       300.344      
1.39182       300.344      
1.39353       300.344      
1.39523       300.345      
1.39693       300.345      
1.39864       300.345      
1.40034       300.346      
1.40204       300.346      
1.40375       300.347      
1.40545       300.347      
1.40716       300.347      
1.40886       300.348      
1.41056       300.348      
1.41227       300.348      
1.41397       300.349      
1.41567       300.349      
1.41738       300.349      
1.41908       300.35       
1.42078       300.35       
1.42249       300.351      
1.42419       300.351      
1.42589       300.351      
1.4276        300.352      
1.4293        300.352      
1.43101       300.352      
1.43271       300.353      
1.43441       300.353      
1.43612       300.354      
1.43782       300.354      
1.43952       300.354      
1.44123       300.355      
1.44293       300.355      
1.44463       300.355      
1.44634       300.356      
1.44804       300.356      
1.44974       300.357      
1.45145       300.357      
1.45315       300.357      
1.45486       300.358      
1.45656       300.358      
1.45826       300.358      
1.45997       300.359      
1.46167       300.359      
1.46337       300.359      
1.46508       300.36       
1.46678       300.36       
1.46848       300.361      
1.47019       300.361      
1.47189       300.361      
1.47359       300.362      
1.4753        300.362      
1.477         300.362      
1.47871       300.363      
1.48041       300.363      
1.48211       300.364      
1.48382       300.364      
1.48552       300.364      
1.48722       300.365      
1.48893       300.365      
1.49063       300.365      
1.49233       300.366      
1.49404       300.366      
1.49574       300.366      
1.49744       300.367      
1.49915       300.367      
1.50085       300.368      
1.50256       300.368      
1.50426       300.368      
1.50596       300.369      
1.50767       300.369      
1.50937       300.369      
1.51107       300.37       
1.51278       300.37       
1.51448       300.371      
1.51618       300.371      
1.51789       300.371      
1.51959       300.372      
1.52129       300.372      
1.523         300.372      
1.5247        300.373      
1.52641       300.373      
1.52811       300.373      
1.52981       300.374      
1.53152       300.374      
1.53322       300.375      
1.53492       300.375      
1.53663       300.375      
1.53833       300.376      
1.54003       300.376      
1.54174       300.376      
1.54344       300.377      
1.54514       300.377      
1.54685       300.377      
1.54855       300.378      
1.55026       300.378      
1.55196       300.379      
1.55366       300.379      
1.55537       300.379      
1.55707       300.38       
1.55877       300.38       
1.56048       300.38       
1.56218       300.381      
1.56388       300.381      
1.56559       300.381      
1.56729       300.382      
1.56899       300.382      
1.5707        300.383      
1.5724        300.383      
1.57411       300.383      
1.57581       300.384      
1.57751       300.384      
1.57922       300.384      
1.58092       300.385      
1.58262       300.385      
1.58433       300.385      
1.58603       300.386      
1.58773       300.386      
1.58944       300.387      
1.59114       300.387      
1.59284       300.387      
1.59455       300.388      
1.59625       300.388      
1.59796       300.388      
1.59966       300.389      
1.60136       300.389      
1.60307       300.389      
1.60477       300.39       
1.60647       300.39       
1.60818       300.391      
1.60988       300.391      
1.61158       300.391      
1.61329       300.392      
1.61499       300.392      
1.6167        300.392      
1.6184        300.393      
1.6201        300.393      
1.62181       300.393      
1.62351       300.394      
1.62521       300.394      
1.62692       300.394      
1.62862       300.395      
1.63032       300.395      
1.63203       300.396      
1.63373       300.396      
1.63543       300.396      
1.63714       300.397      
1.63884       300.397      
1.64055       300.397      
1.64225       300.398      
1.64395       300.398      
1.64566       300.398      
1.64736       300.399      
1.64906       300.399      
1.65077       300.4        
1.65247       300.4        
1.65417       300.4        
1.65588       300.401      
1.65758       300.401      
1.65928       300.401      
1.66099       300.402      
1.66269       300.402      
1.6644        300.402      
1.6661        300.403      
1.6678        300.403      
1.66951       300.403      
1.67121       300.404      
1.67291       300.404      
1.67462       300.405      
1.67632       300.405      
1.67802       300.405      
1.67973       300.406      
1.68143       300.406      
1.68313       300.406      
1.68484       300.407      
1.68654       300.407      
1.68825       300.407      
1.68995       300.408      
1.69165       300.408      
1.69336       300.409      
1.69506       300.409      
1.69676       300.409      
1.69847       300.41       
1.70017       300.41       
1.70187       300.41       
1.70358       300.411      
1.70528       300.411      
1.70698       300.411      
1.70869       300.412      
1.71039       300.412      
1.7121        300.412      
1.7138        300.413      
1.7155        300.413      
1.71721       300.414      
1.71891       300.414      
1.72061       300.414      
1.72232       300.415      
1.72402       300.415      
1.72572       300.415      
1.72743       300.416      
1.72913       300.416      
1.73083       300.416      
1.73254       300.417      
1.73424       300.417      
1.73595       300.417      
1.73765       300.418      
1.73935       300.418      
1.74106       300.418      
1.74276       300.419      
1.74446       300.419      
1.74617       300.42       
1.74787       300.42       
1.74957       300.42       
1.75128       300.421      
1.75298       300.421      
1.75468       300.421      
1.75639       300.422      
1.75809       300.422      
1.7598        300.422      
1.7615        300.423      
1.7632        300.423      
1.76491       300.423      
1.76661       300.424      
1.76831       300.424      
1.77002       300.425      
1.77172       300.425      
1.77342       300.425      
1.77513       300.426      
1.77683       300.426      
1.77853       300.426      
1.78024       300.427      
1.78194       300.427      
1.78365       300.427      
1.78535       300.428      
1.78705       300.428      
1.78876       300.428      
1.79046       300.429      
1.79216       300.429      
1.79387       300.429      
1.79557       300.43       
1.79727       300.43       
1.79898       300.431      
1.80068       300.431      
1.80239       300.431      
1.80409       300.432      
1.80579       300.432      
1.8075        300.432      
1.8092        300.433      
1.8109        300.433      
1.81261       300.433      
1.81431       300.434      
1.81601       300.434      
1.81772       300.434      
1.81942       300.435      