# Probe 0 (0 -0.027 0.035)
# Time        0            
0             300          
0.00119904    300.034      
0.00263616    300.075      
0.00434106    300.124      
0.00604596    300.173      
0.00775085    300.222      
0.00945575    300.271      
0.0111606     300.32       
0.0128655     300.368      
0.0145704     300.417      
0.0162753     300.466      
0.0179802     300.515      
0.0196851     300.564      
0.02139       300.613      
0.0230949     300.662      
0.0247998     300.71       
0.0265047     300.759      
0.0282096     300.808      
0.0299145     300.857      
0.0316194     300.906      
0.0333243     300.955      
0.0350292     301.004      
0.0367341     301.052      
0.038439      301.101      
0.0401439     301.15       
0.0418488     301.199      
0.0435537     301.248      
0.0452586     301.296      
0.0469634     301.345      
0.0486683     301.394      
0.0503732     301.443      
0.0520781     301.491      
0.053783      301.54       
0.0554879     301.589      
0.0571928     301.637      
0.0588977     301.686      
0.0606026     301.734      
0.0623075     301.783      
0.0640124     301.832      
0.0657173     301.88       
0.0674222     301.929      
0.0691271     301.977      
0.070832      302.026      
0.0725369     302.074      
0.0742418     302.123      
0.0759467     302.171      
0.0776516     302.219      
0.0793565     302.268      
0.0810614     302.316      
0.0827663     302.365      
0.0844711     302.413      
0.086176      302.461      
0.0878809     302.509      
0.0895858     302.558      
0.0912907     302.606      
0.0929956     302.654      
0.0947005     302.702      
0.0964054     302.75       
0.0981103     302.798      
0.0998152     302.847      
0.10152       302.895      
0.103225      302.943      
0.10493       302.991      
0.106635      303.039      
0.10834       303.087      
0.110045      303.135      
0.111749      303.182      
0.113454      303.23       
0.115159      303.278      
0.116864      303.326      
0.118569      303.374      
0.120274      303.422      
0.121979      303.469      
0.123684      303.517      
0.125389      303.565      
0.127094      303.613      
0.128798      303.66       
0.130503      303.708      
0.132208      303.755      
0.133913      303.803      
0.135618      303.851      
0.137323      303.898      
0.139028      303.946      
0.140733      303.993      
0.142438      304.041      
0.144142      304.088      
0.145847      304.135      
0.147552      304.183      
0.149257      304.23       
0.150962      304.277      
0.152667      304.325      
0.154372      304.372      
0.156077      304.419      
0.157782      304.466      
0.159487      304.514      
0.161191      304.561      
0.162896      304.608      
0.164601      304.655      
0.166306      304.702      
0.168011      304.749      
0.169716      304.796      
0.171421      304.843      
0.173126      304.89       
0.174831      304.937      
0.176535      304.984      
0.17824       305.031      
0.179945      305.078      
0.18165       305.125      
0.183355      305.172      
0.18506       305.219      
0.186765      305.265      
0.18847       305.312      
0.190175      305.359      
0.19188       305.406      
0.193584      305.452      
0.195289      305.499      
0.196994      305.546      
0.198699      305.592      
0.200404      305.639      
0.202109      305.685      
0.203814      305.732      
0.205519      305.778      
0.207224      305.825      
0.208929      305.871      
0.210633      305.918      
0.212338      305.964      
0.214043      306.011      
0.215748      306.057      
0.217453      306.103      
0.219158      306.15       
0.220863      306.196      
0.222568      306.242      
0.224273      306.288      
0.225977      306.335      
0.227682      306.381      
0.229387      306.427      
0.231092      306.473      
0.232797      306.519      
0.234502      306.565      
0.236207      306.612      
0.237912      306.658      
0.239617      306.704      
0.241322      306.75       
0.243026      306.796      
0.244731      306.842      
0.246436      306.888      
0.248141      306.934      
0.249846      306.979      
0.251551      307.025      
0.253256      307.071      
0.254961      307.117      
0.256666      307.163      
0.25837       307.209      
0.260075      307.254      
0.26178       307.3        
0.263485      307.346      
0.26519       307.392      
0.266895      307.437      
0.2686        307.483      
0.270305      307.528      
0.27201       307.574      
0.273715      307.62       
0.275419      307.665      
0.277124      307.711      
0.278829      307.756      
0.280534      307.802      
0.282239      307.847      
0.283944      307.893      
0.285649      307.938      
0.287354      307.984      
0.289059      308.029      
0.290763      308.074      
0.292468      308.12       
0.294173      308.165      
0.295878      308.21       
0.297583      308.256      
0.299288      308.301      
0.300993      308.346      
0.302698      308.391      
0.304403      308.437      
0.306108      308.482      
0.307812      308.527      
0.309517      308.572      
0.311222      308.617      
0.312927      308.662      
0.314632      308.707      
0.316337      308.752      
0.318042      308.797      
0.319747      308.842      
0.321452      308.887      
0.323157      308.932      
0.324861      308.977      
0.326566      309.022      
0.328271      309.067      
0.329976      309.112      
0.331681      309.157      
0.333386      309.202      
0.335091      309.247      
0.336796      309.292      
0.338501      309.336      
0.340205      309.381      
0.34191       309.426      
0.343615      309.471      
0.34532       309.515      
0.347025      309.56       
0.34873       309.605      
0.350435      309.649      
0.35214       309.694      
0.353845      309.739      
0.35555       309.783      
0.357254      309.828      
0.358959      309.872      
0.360664      309.917      
0.362369      309.961      
0.364074      310.006      
0.365779      310.05       
0.367484      310.095      
0.369189      310.139      
0.370894      310.184      
0.372598      310.228      
0.374303      310.273      
0.376008      310.317      
0.377713      310.361      
0.379418      310.406      
0.381123      310.45       
0.382828      310.494      
0.384533      310.538      
0.386238      310.583      
0.387943      310.627      
0.389647      310.671      
0.391352      310.715      
0.393057      310.76       
0.394762      310.804      
0.396467      310.848      
0.398172      310.892      
0.399877      310.936      
0.401582      310.98       
0.403287      311.024      
0.404991      311.068      
0.406696      311.113      
0.408401      311.157      
0.410106      311.201      
0.411811      311.245      
0.413516      311.289      
0.415221      311.332      
0.416926      311.376      
0.418631      311.42       
0.420336      311.464      
0.42204       311.508      
0.423745      311.552      
0.42545       311.596      
0.427155      311.64       
0.42886       311.684      
0.430565      311.727      
0.43227       311.771      
0.433975      311.815      
0.43568       311.859      
0.437385      311.902      
0.439089      311.946      
0.440794      311.99       
0.442499      312.033      
0.444204      312.077      
0.445909      312.121      
0.447614      312.164      
0.449319      312.208      
0.451024      312.252      
0.452729      312.295      
0.454433      312.339      
0.456138      312.382      
0.457843      312.426      
0.459548      312.469      
0.461253      312.513      
0.462958      312.556      
0.464663      312.6        
0.466368      312.643      
0.468073      312.687      
0.469778      312.73       
0.471482      312.774      
0.473187      312.817      
0.474892      312.86       
0.476597      312.904      
0.478302      312.947      
0.480007      312.99       
0.481712      313.034      
0.483417      313.077      
0.485122      313.12       
0.486826      313.163      
0.488531      313.207      
0.490236      313.25       
0.491941      313.293      
0.493646      313.336      
0.495351      313.38       
0.497056      313.423      
0.498761      313.466      
0.500466      313.509      
0.502171      313.552      
0.503875      313.595      
0.50558       313.638      
0.507285      313.681      
0.50899       313.724      
0.510695      313.767      
0.5124        313.81       
0.514105      313.853      
0.51581       313.896      
0.517515      313.939      
0.519219      313.982      
0.520924      314.025      
0.522629      314.068      
0.524334      314.111      
0.526039      314.154      
0.527744      314.197      
0.529449      314.24       
0.531154      314.283      
0.532859      314.326      
0.534564      314.368      
0.536268      314.411      
0.537973      314.454      
0.539678      314.497      
0.541383      314.54       
0.543088      314.582      
0.544793      314.625      
0.546498      314.668      
0.548203      314.71       
0.549908      314.753      
0.551612      314.796      
0.553317      314.839      
0.555022      314.881      
0.556727      314.924      
0.558432      314.966      
0.560137      315.009      
0.561842      315.052      
0.563547      315.094      
0.565252      315.137      
0.566957      315.179      
0.568661      315.222      
0.570366      315.264      
0.572071      315.307      
0.573776      315.349      
0.575481      315.392      
0.577186      315.434      
0.578891      315.477      
0.580596      315.519      
0.582301      315.562      
0.584006      315.604      
0.58571       315.646      
0.587415      315.689      
0.58912       315.731      
0.590825      315.774      
0.59253       315.816      
0.594235      315.858      
0.59594       315.9        
0.597645      315.943      
0.59935       315.985      
0.601054      316.027      
0.602759      316.07       
0.604464      316.112      
0.606169      316.154      
0.607874      316.196      
0.609579      316.238      
0.611284      316.281      
0.612989      316.323      
0.614694      316.365      
0.616399      316.407      
0.618103      316.449      
0.619808      316.491      
0.621513      316.533      
0.623218      316.576      
0.624923      316.618      
0.626628      316.66       
0.628333      316.702      
0.630038      316.744      
0.631743      316.786      
0.633447      316.828      
0.635152      316.87       
0.636857      316.912      
0.638562      316.954      
0.640267      316.996      
0.641972      317.038      
0.643677      317.08       
0.645382      317.121      
0.647087      317.163      
0.648792      317.205      
0.650496      317.247      
0.652201      317.289      
0.653906      317.331      
0.655611      317.373      
0.657316      317.415      
0.659021      317.456      
0.660726      317.498      
0.662431      317.54       
0.664136      317.582      
0.66584       317.623      
0.667545      317.665      
0.66925       317.707      
0.670955      317.749      
0.67266       317.79       
0.674365      317.832      
0.67607       317.874      
0.677775      317.915      
0.67948       317.957      
0.681185      317.999      
0.682889      318.04       
0.684594      318.082      
0.686299      318.123      
0.688004      318.165      
0.689709      318.207      
0.691414      318.248      
0.693119      318.29       
0.694824      318.331      
0.696529      318.373      
0.698234      318.414      
0.699938      318.456      
0.701643      318.497      
0.703348      318.539      
0.705053      318.58       
0.706758      318.622      
0.708463      318.663      
0.710168      318.705      
0.711873      318.746      
0.713578      318.787      
0.715282      318.829      
0.716987      318.87       
0.718692      318.912      
0.720397      318.953      
0.722102      318.994      
0.723807      319.036      
0.725512      319.077      
0.727217      319.118      
0.728922      319.159      
0.730627      319.201      
0.732331      319.242      
0.734036      319.283      
0.735741      319.324      
0.737446      319.366      
0.739151      319.407      
0.740856      319.448      
0.742561      319.489      
0.744266      319.53       
0.745971      319.572      
0.747675      319.613      
0.74938       319.654      
0.751085      319.695      
0.75279       319.736      
0.754495      319.777      
0.7562        319.818      
0.757905      319.859      
0.75961       319.9        
0.761315      319.942      
0.76302       319.983      
0.764724      320.024      
0.766429      320.065      
0.768134      320.106      
0.769839      320.147      
0.771544      320.188      
0.773249      320.229      
0.774954      320.27       
0.776659      320.31       
0.778364      320.351      
0.780068      320.392      
0.781773      320.433      
0.783478      320.474      
0.785183      320.515      
0.786888      320.556      
0.788593      320.597      
0.790298      320.638      
0.792003      320.678      
0.793708      320.719      
0.795413      320.76       
0.797117      320.801      
0.798822      320.842      
0.800527      320.883      
0.802232      320.923      
0.803937      320.964      
0.805642      321.005      
0.807347      321.046      
0.809052      321.086      
0.810757      321.127      
0.812462      321.168      
0.814166      321.208      
0.815871      321.249      
0.817576      321.29       
0.819281      321.33       
0.820986      321.371      
0.822691      321.412      
0.824396      321.452      
0.826101      321.493      
0.827806      321.533      
0.82951       321.574      
0.831215      321.615      
0.83292       321.655      
0.834625      321.696      
0.83633       321.736      
0.838035      321.777      
0.83974       321.817      
0.841445      321.858      
0.84315       321.898      
0.844855      321.939      
0.846559      321.979      
0.848264      322.02       
0.849969      322.06       
0.851674      322.101      
0.853379      322.141      
0.855084      322.181      
0.856789      322.222      
0.858494      322.262      
0.860199      322.303      
0.861903      322.343      
0.863608      322.383      
0.865313      322.424      
0.867018      322.464      
0.868723      322.504      
0.870428      322.545      
0.872133      322.585      
0.873838      322.625      
0.875543      322.665      
0.877248      322.706      
0.878952      322.746      
0.880657      322.786      
0.882362      322.826      
0.884067      322.867      
0.885772      322.907      
0.887477      322.947      
0.889182      322.987      
0.890887      323.027      
0.892592      323.068      
0.894296      323.108      
0.896001      323.148      
0.897706      323.188      
0.899411      323.228      
0.901116      323.268      
0.902821      323.308      
0.904526      323.348      
0.906231      323.389      
0.907936      323.429      
0.909641      323.469      
0.911345      323.509      
0.91305       323.549      
0.914755      323.589      
0.91646       323.629      
0.918165      323.669      
0.91987       323.709      
0.921575      323.749      
0.92328       323.789      
0.924985      323.829      
0.926689      323.869      
0.928394      323.909      
0.930099      323.949      
0.931804      323.988      
0.933509      324.028      
0.935214      324.068      
0.936919      324.108      
0.938624      324.148      
0.940329      324.188      
0.942034      324.228      
0.943738      324.268      
0.945443      324.307      
0.947148      324.347      
0.948853      324.387      
0.950558      324.427      
0.952263      324.467      
0.953968      324.506      
0.955673      324.546      
0.957378      324.586      
0.959083      324.626      
0.960787      324.665      
0.962492      324.705      
0.964197      324.745      
0.965902      324.784      
0.967607      324.824      
0.969312      324.864      
0.971017      324.904      
0.972722      324.943      
0.974427      324.983      
0.976131      325.022      
0.977836      325.062      
0.979541      325.102      
0.981246      325.141      
0.982951      325.181      
0.984656      325.22       
0.986361      325.26       
0.988066      325.3        
0.989771      325.339      
0.991476      325.379      
0.99318       325.418      
0.994885      325.458      
0.99659       325.497      
0.998295      325.537      
1             325.576      
1.0017        325.616      
1.00341       325.655      
1.00511       325.695      
1.00681       325.734      
1.00852       325.773      
1.01022       325.813      
1.01193       325.852      
1.01363       325.892      
1.01533       325.931      
1.01704       325.97       
1.01874       326.01       
1.02044       326.049      
1.02215       326.088      
1.02385       326.128      
1.02555       326.167      
1.02726       326.206      
1.02896       326.245      
1.03066       326.285      
1.03237       326.324      
1.03407       326.363      
1.03578       326.403      
1.03748       326.442      
1.03918       326.481      
1.04089       326.52       
1.04259       326.559      
1.04429       326.599      
1.046         326.638      
1.0477        326.677      
1.0494        326.716      
1.05111       326.755      
1.05281       326.794      
1.05451       326.834      
1.05622       326.873      
1.05792       326.912      
1.05963       326.951      
1.06133       326.99       
1.06303       327.029      
1.06474       327.068      
1.06644       327.107      
1.06814       327.146      
1.06985       327.185      
1.07155       327.224      
1.07325       327.263      
1.07496       327.302      
1.07666       327.341      
1.07836       327.38       
1.08007       327.419      
1.08177       327.458      
1.08348       327.497      
1.08518       327.536      
1.08688       327.575      
1.08859       327.614      
1.09029       327.653      
1.09199       327.692      
1.0937        327.731      
1.0954        327.77       
1.0971        327.808      
1.09881       327.847      
1.10051       327.886      
1.10221       327.925      
1.10392       327.964      
1.10562       328.003      
1.10733       328.042      
1.10903       328.08       
1.11073       328.119      
1.11244       328.158      
1.11414       328.197      
1.11584       328.235      
1.11755       328.274      
1.11925       328.313      
1.12095       328.352      
1.12266       328.39       
1.12436       328.429      
1.12606       328.468      
1.12777       328.507      
1.12947       328.545      
1.13118       328.584      
1.13288       328.623      
1.13458       328.661      
1.13629       328.7        
1.13799       328.739      
1.13969       328.777      
1.1414        328.816      
1.1431        328.854      
1.1448        328.893      
1.14651       328.932      
1.14821       328.97       
1.14991       329.009      
1.15162       329.047      
1.15332       329.086      
1.15503       329.124      
1.15673       329.163      
1.15843       329.202      
1.16014       329.24       
1.16184       329.279      
1.16354       329.317      
1.16525       329.356      
1.16695       329.394      
1.16865       329.432      
1.17036       329.471      
1.17206       329.509      
1.17376       329.548      
1.17547       329.586      
1.17717       329.625      
1.17888       329.663      
1.18058       329.701      
1.18228       329.74       
1.18399       329.778      
1.18569       329.817      
1.18739       329.855      
1.1891        329.893      
1.1908        329.932      
1.1925        329.97       
1.19421       330.008      
1.19591       330.047      
1.19761       330.085      
1.19932       330.123      
1.20102       330.162      
1.20273       330.2        
1.20443       330.238      
1.20613       330.276      
1.20784       330.315      
1.20954       330.353      
1.21124       330.391      
1.21295       330.429      
1.21465       330.467      
1.21635       330.506      
1.21806       330.544      
1.21976       330.582      
1.22147       330.62       
1.22317       330.658      
1.22487       330.697      
1.22658       330.735      
1.22828       330.773      
1.22998       330.811      
1.23169       330.849      
1.23339       330.887      
1.23509       330.925      
1.2368        330.963      
1.2385        331.001      
1.2402        331.039      
1.24191       331.078      
1.24361       331.116      
1.24532       331.154      
1.24702       331.192      
1.24872       331.23       
1.25043       331.268      
1.25213       331.306      
1.25383       331.344      
1.25554       331.382      
1.25724       331.42       
1.25894       331.458      
1.26065       331.496      
1.26235       331.533      
1.26405       331.571      
1.26576       331.609      
1.26746       331.647      
1.26917       331.685      
1.27087       331.723      
1.27257       331.761      
1.27428       331.799      
1.27598       331.837      
1.27768       331.875      
1.27939       331.912      
1.28109       331.95       
1.28279       331.988      
1.2845        332.026      
1.2862        332.064      
1.2879        332.102      
1.28961       332.139      
1.29131       332.177      
1.29302       332.215      
1.29472       332.253      
1.29642       332.29       
1.29813       332.328      
1.29983       332.366      
1.30153       332.404      
1.30324       332.441      
1.30494       332.479      
1.30664       332.517      
1.30835       332.555      
1.31005       332.592      
1.31175       332.63       
1.31346       332.668      
1.31516       332.705      
1.31687       332.743      
1.31857       332.781      
1.32027       332.818      
1.32198       332.856      
1.32368       332.893      
1.32538       332.931      
1.32709       332.969      
1.32879       333.006      
1.33049       333.044      
1.3322        333.081      
1.3339        333.119      
1.3356        333.156      
1.33731       333.194      
1.33901       333.232      
1.34072       333.269      
1.34242       333.307      
1.34412       333.344      
1.34583       333.382      
1.34753       333.419      
1.34923       333.457      
1.35094       333.494      
1.35264       333.531      
1.35434       333.569      
1.35605       333.606      
1.35775       333.644      
1.35945       333.681      
1.36116       333.719      
1.36286       333.756      
1.36457       333.793      
1.36627       333.831      
1.36797       333.868      
1.36968       333.906      
1.37138       333.943      
1.37308       333.98       
1.37479       334.018      
1.37649       334.055      
1.37819       334.092      
1.3799        334.13       
1.3816        334.167      
1.3833        334.204      
1.38501       334.242      
1.38671       334.279      
1.38842       334.316      
1.39012       334.353      
1.39182       334.391      
1.39353       334.428      
1.39523       334.465      
1.39693       334.502      
1.39864       334.54       
1.40034       334.577      
1.40204       334.614      
1.40375       334.651      
1.40545       334.688      
1.40716       334.726      
1.40886       334.763      
1.41056       334.8        
1.41227       334.837      
1.41397       334.874      
1.41567       334.911      
1.41738       334.948      
1.41908       334.986      
1.42078       335.023      
1.42249       335.06       
1.42419       335.097      
1.42589       335.134      
1.4276        335.171      
1.4293        335.208      
1.43101       335.245      
1.43271       335.282      
1.43441       335.319      
1.43612       335.356      
1.43782       335.393      
1.43952       335.43       
1.44123       335.467      
1.44293       335.504      
1.44463       335.541      
1.44634       335.578      
1.44804       335.615      
1.44974       335.652      
1.45145       335.689      
1.45315       335.726      
1.45486       335.763      
1.45656       335.8        
1.45826       335.837      
1.45997       335.874      
1.46167       335.911      
1.46337       335.947      
1.46508       335.984      
1.46678       336.021      
1.46848       336.058      
1.47019       336.095      
1.47189       336.132      
1.47359       336.169      
1.4753        336.205      
1.477         336.242      
1.47871       336.279      
1.48041       336.316      
1.48211       336.353      
1.48382       336.389      
1.48552       336.426      
1.48722       336.463      
1.48893       336.5        
1.49063       336.537      
1.49233       336.573      
1.49404       336.61       
1.49574       336.647      
1.49744       336.683      
1.49915       336.72       
1.50085       336.757      
1.50256       336.794      
1.50426       336.83       
1.50596       336.867      
1.50767       336.904      
1.50937       336.94       
1.51107       336.977      
1.51278       337.013      
1.51448       337.05       
1.51618       337.087      
1.51789       337.123      
1.51959       337.16       
1.52129       337.197      
1.523         337.233      
1.5247        337.27       
1.52641       337.306      
1.52811       337.343      
1.52981       337.379      
1.53152       337.416      
1.53322       337.453      
1.53492       337.489      
1.53663       337.526      
1.53833       337.562      
1.54003       337.599      
1.54174       337.635      
1.54344       337.672      
1.54514       337.708      
1.54685       337.745      
1.54855       337.781      
1.55026       337.817      
1.55196       337.854      
1.55366       337.89       
1.55537       337.927      
1.55707       337.963      
1.55877       338          
1.56048       338.036      
1.56218       338.072      
1.56388       338.109      
1.56559       338.145      
1.56729       338.182      
1.56899       338.218      
1.5707        338.254      
1.5724        338.291      
1.57411       338.327      
1.57581       338.363      
1.57751       338.4        
1.57922       338.436      
1.58092       338.472      
1.58262       338.509      
1.58433       338.545      
1.58603       338.581      
1.58773       338.617      
1.58944       338.654      
1.59114       338.69       
1.59284       338.726      
1.59455       338.762      
1.59625       338.799      
1.59796       338.835      
1.59966       338.871      
1.60136       338.907      
1.60307       338.943      
1.60477       338.98       
1.60647       339.016      
1.60818       339.052      
1.60988       339.088      
1.61158       339.124      
1.61329       339.16       
1.61499       339.197      
1.6167        339.233      
1.6184        339.269      
1.6201        339.305      
1.62181       339.341      
1.62351       339.377      
1.62521       339.413      
1.62692       339.449      
1.62862       339.485      
1.63032       339.521      
1.63203       339.558      
1.63373       339.594      
1.63543       339.63       
1.63714       339.666      
1.63884       339.702      
1.64055       339.738      
1.64225       339.774      
1.64395       339.81       
1.64566       339.846      
1.64736       339.882      
1.64906       339.918      
1.65077       339.954      
1.65247       339.99       
1.65417       340.026      
1.65588       340.061      
1.65758       340.097      
1.65928       340.133      
1.66099       340.169      
1.66269       340.205      
1.6644        340.241      
1.6661        340.277      
1.6678        340.313      
1.66951       340.349      
1.67121       340.385      
1.67291       340.42       
1.67462       340.456      
1.67632       340.492      
1.67802       340.528      
1.67973       340.564      
1.68143       340.6        
1.68313       340.636      
1.68484       340.671      
1.68654       340.707      
1.68825       340.743      
1.68995       340.779      
1.69165       340.814      
1.69336       340.85       
1.69506       340.886      
1.69676       340.922      
1.69847       340.957      
1.70017       340.993      
1.70187       341.029      
1.70358       341.065      
1.70528       341.1        
1.70698       341.136      
1.70869       341.172      
1.71039       341.207      
1.7121        341.243      
1.7138        341.279      
1.7155        341.314      
1.71721       341.35       
1.71891       341.386      
1.72061       341.421      
1.72232       341.457      
1.72402       341.493      
1.72572       341.528      
1.72743       341.564      
1.72913       341.6        
1.73083       341.635      
1.73254       341.671      
1.73424       341.706      
1.73595       341.742      
1.73765       341.777      
1.73935       341.813      
1.74106       341.848      
1.74276       341.884      
1.74446       341.92       
1.74617       341.955      
1.74787       341.991      
1.74957       342.026      
1.75128       342.062      
1.75298       342.097      
1.75468       342.133      
1.75639       342.168      
1.75809       342.204      
1.7598        342.239      
1.7615        342.274      
1.7632        342.31       
1.76491       342.345      
1.76661       342.381      
1.76831       342.416      
1.77002       342.452      
1.77172       342.487      
1.77342       342.522      
1.77513       342.558      
1.77683       342.593      
1.77853       342.629      
1.78024       342.664      
1.78194       342.699      
1.78365       342.735      
1.78535       342.77       
1.78705       342.805      
1.78876       342.841      
1.79046       342.876      
1.79216       342.911      
1.79387       342.947      
1.79557       342.982      
1.79727       343.017      
1.79898       343.052      
1.80068       343.088      
1.80239       343.123      
1.80409       343.158      
1.80579       343.193      
1.8075        343.229      
1.8092        343.264      
1.8109        343.299      
1.81261       343.334      
1.81431       343.37       
1.81601       343.405      
1.81772       343.44       
1.81942       343.475      