# Probe 0 (0 -0.027 0.035)
# Time        0            
0             300          
0.00119904    300.001      
0.00263616    300.002      
0.00434106    300.004      
0.00604596    300.005      
0.00775085    300.007      
0.00945575    300.008      
0.0111606     300.01       
0.0128655     300.011      
0.0145704     300.013      
0.0162753     300.014      
0.0179802     300.015      
0.0196851     300.017      
0.02139       300.018      
0.0230949     300.02       
0.0247998     300.021      
0.0265047     300.023      
0.0282096     300.024      
0.0299145     300.026      
0.0316194     300.027      
0.0333243     300.029      
0.0350292     300.03       
0.0367341     300.032      
0.038439      300.033      
0.0401439     300.035      
0.0418488     300.036      
0.0435537     300.037      
0.0452586     300.039      
0.0469634     300.04       
0.0486683     300.042      
0.0503732     300.043      
0.0520781     300.045      
0.053783      300.046      
0.0554879     300.048      
0.0571928     300.049      
0.0588977     300.051      
0.0606026     300.052      
0.0623075     300.053      
0.0640124     300.055      
0.0657173     300.056      
0.0674222     300.058      
0.0691271     300.059      
0.070832      300.061      
0.0725369     300.062      
0.0742418     300.064      
0.0759467     300.065      
0.0776516     300.067      
0.0793565     300.068      
0.0810614     300.069      
0.0827663     300.071      
0.0844711     300.072      
0.086176      300.074      
0.0878809     300.075      
0.0895858     300.077      
0.0912907     300.078      
0.0929956     300.08       
0.0947005     300.081      
0.0964054     300.083      
0.0981103     300.084      
0.0998152     300.085      
0.10152       300.087      
0.103225      300.088      
0.10493       300.09       
0.106635      300.091      
0.10834       300.093      
0.110045      300.094      
0.111749      300.095      
0.113454      300.097      
0.115159      300.098      
0.116864      300.1        
0.118569      300.101      
0.120274      300.103      
0.121979      300.104      
0.123684      300.106      
0.125389      300.107      
0.127094      300.108      
0.128798      300.11       
0.130503      300.111      
0.132208      300.113      
0.133913      300.114      
0.135618      300.116      
0.137323      300.117      
0.139028      300.118      
0.140733      300.12       
0.142438      300.121      
0.144142      300.123      
0.145847      300.124      
0.147552      300.125      
0.149257      300.127      
0.150962      300.128      
0.152667      300.13       
0.154372      300.131      
0.156077      300.133      
0.157782      300.134      
0.159487      300.135      
0.161191      300.137      
0.162896      300.138      
0.164601      300.14       
0.166306      300.141      
0.168011      300.142      
0.169716      300.144      
0.171421      300.145      
0.173126      300.147      
0.174831      300.148      
0.176535      300.15       
0.17824       300.151      
0.179945      300.152      
0.18165       300.154      
0.183355      300.155      
0.18506       300.157      
0.186765      300.158      
0.18847       300.159      
0.190175      300.161      
0.19188       300.162      
0.193584      300.164      
0.195289      300.165      
0.196994      300.166      
0.198699      300.168      
0.200404      300.169      
0.202109      300.171      
0.203814      300.172      
0.205519      300.173      
0.207224      300.175      
0.208929      300.176      
0.210633      300.178      
0.212338      300.179      
0.214043      300.18       
0.215748      300.182      
0.217453      300.183      
0.219158      300.184      
0.220863      300.186      
0.222568      300.187      
0.224273      300.189      
0.225977      300.19       
0.227682      300.191      
0.229387      300.193      
0.231092      300.194      
0.232797      300.196      
0.234502      300.197      
0.236207      300.198      
0.237912      300.2        
0.239617      300.201      
0.241322      300.202      
0.243026      300.204      
0.244731      300.205      
0.246436      300.207      
0.248141      300.208      
0.249846      300.209      
0.251551      300.211      
0.253256      300.212      
0.254961      300.214      
0.256666      300.215      
0.25837       300.216      
0.260075      300.218      
0.26178       300.219      
0.263485      300.22       
0.26519       300.222      
0.266895      300.223      
0.2686        300.224      
0.270305      300.226      
0.27201       300.227      
0.273715      300.229      
0.275419      300.23       
0.277124      300.231      
0.278829      300.233      
0.280534      300.234      
0.282239      300.235      
0.283944      300.237      
0.285649      300.238      
0.287354      300.24       
0.289059      300.241      
0.290763      300.242      
0.292468      300.244      
0.294173      300.245      
0.295878      300.246      
0.297583      300.248      
0.299288      300.249      
0.300993      300.25       
0.302698      300.252      
0.304403      300.253      
0.306108      300.254      
0.307812      300.256      
0.309517      300.257      
0.311222      300.259      
0.312927      300.26       
0.314632      300.261      
0.316337      300.263      
0.318042      300.264      
0.319747      300.265      
0.321452      300.267      
0.323157      300.268      
0.324861      300.269      
0.326566      300.271      
0.328271      300.272      
0.329976      300.273      
0.331681      300.275      
0.333386      300.276      
0.335091      300.277      
0.336796      300.279      
0.338501      300.28       
0.340205      300.281      
0.34191       300.283      
0.343615      300.284      
0.34532       300.285      
0.347025      300.287      
0.34873       300.288      
0.350435      300.289      
0.35214       300.291      
0.353845      300.292      
0.35555       300.293      
0.357254      300.295      
0.358959      300.296      
0.360664      300.298      
0.362369      300.299      
0.364074      300.3        
0.365779      300.302      
0.367484      300.303      
0.369189      300.304      
0.370894      300.306      
0.372598      300.307      
0.374303      300.308      
0.376008      300.31       
0.377713      300.311      
0.379418      300.312      
0.381123      300.313      
0.382828      300.315      
0.384533      300.316      
0.386238      300.317      
0.387943      300.319      
0.389647      300.32       
0.391352      300.321      
0.393057      300.323      
0.394762      300.324      
0.396467      300.325      
0.398172      300.327      
0.399877      300.328      
0.401582      300.329      
0.403287      300.331      
0.404991      300.332      
0.406696      300.333      
0.408401      300.335      
0.410106      300.336      
0.411811      300.337      
0.413516      300.339      
0.415221      300.34       
0.416926      300.341      
0.418631      300.343      
0.420336      300.344      
0.42204       300.345      
0.423745      300.347      
0.42545       300.348      
0.427155      300.349      
0.42886       300.351      
0.430565      300.352      
0.43227       300.353      
0.433975      300.354      
0.43568       300.356      
0.437385      300.357      
0.439089      300.358      
0.440794      300.36       
0.442499      300.361      
0.444204      300.362      
0.445909      300.364      
0.447614      300.365      
0.449319      300.366      
0.451024      300.368      
0.452729      300.369      
0.454433      300.37       
0.456138      300.371      
0.457843      300.373      
0.459548      300.374      
0.461253      300.375      
0.462958      300.377      
0.464663      300.378      
0.466368      300.379      
0.468073      300.381      
0.469778      300.382      
0.471482      300.383      
0.473187      300.385      
0.474892      300.386      
0.476597      300.387      
0.478302      300.388      
0.480007      300.39       
0.481712      300.391      
0.483417      300.392      
0.485122      300.394      
0.486826      300.395      
0.488531      300.396      
0.490236      300.397      
0.491941      300.399      
0.493646      300.4        
0.495351      300.401      
0.497056      300.403      
0.498761      300.404      
0.500466      300.405      
0.502171      300.407      
0.503875      300.408      
0.50558       300.409      
0.507285      300.41       
0.50899       300.412      
0.510695      300.413      
0.5124        300.414      
0.514105      300.416      
0.51581       300.417      
0.517515      300.418      
0.519219      300.419      
0.520924      300.421      
0.522629      300.422      
0.524334      300.423      
0.526039      300.425      
0.527744      300.426      
0.529449      300.427      
0.531154      300.428      
0.532859      300.43       
0.534564      300.431      
0.536268      300.432      
0.537973      300.434      
0.539678      300.435      
0.541383      300.436      
0.543088      300.437      
0.544793      300.439      
0.546498      300.44       
0.548203      300.441      
0.549908      300.443      
0.551612      300.444      
0.553317      300.445      
0.555022      300.446      
0.556727      300.448      
0.558432      300.449      
0.560137      300.45       
0.561842      300.452      
0.563547      300.453      
0.565252      300.454      
0.566957      300.455      
0.568661      300.457      
0.570366      300.458      
0.572071      300.459      
0.573776      300.46       
0.575481      300.462      
0.577186      300.463      
0.578891      300.464      
0.580596      300.466      
0.582301      300.467      
0.584006      300.468      
0.58571       300.469      
0.587415      300.471      
0.58912       300.472      
0.590825      300.473      
0.59253       300.474      
0.594235      300.476      
0.59594       300.477      
0.597645      300.478      
0.59935       300.48       
0.601054      300.481      
0.602759      300.482      
0.604464      300.483      
0.606169      300.485      
0.607874      300.486      
0.609579      300.487      
0.611284      300.488      
0.612989      300.49       
0.614694      300.491      
0.616399      300.492      
0.618103      300.493      
0.619808      300.495      
0.621513      300.496      
0.623218      300.497      
0.624923      300.499      
0.626628      300.5        
0.628333      300.501      
0.630038      300.502      
0.631743      300.504      
0.633447      300.505      
0.635152      300.506      
0.636857      300.507      
0.638562      300.509      
0.640267      300.51       
0.641972      300.511      
0.643677      300.512      
0.645382      300.514      
0.647087      300.515      
0.648792      300.516      
0.650496      300.517      
0.652201      300.519      
0.653906      300.52       
0.655611      300.521      
0.657316      300.522      
0.659021      300.524      
0.660726      300.525      
0.662431      300.526      
0.664136      300.527      
0.66584       300.529      
0.667545      300.53       
0.66925       300.531      
0.670955      300.532      
0.67266       300.534      
0.674365      300.535      
0.67607       300.536      
0.677775      300.537      
0.67948       300.539      
0.681185      300.54       
0.682889      300.541      
0.684594      300.542      
0.686299      300.544      
0.688004      300.545      
0.689709      300.546      
0.691414      300.547      
0.693119      300.549      
0.694824      300.55       
0.696529      300.551      
0.698234      300.552      
0.699938      300.554      
0.701643      300.555      
0.703348      300.556      
0.705053      300.557      
0.706758      300.559      
0.708463      300.56       
0.710168      300.561      
0.711873      300.562      
0.713578      300.564      
0.715282      300.565      
0.716987      300.566      
0.718692      300.567      
0.720397      300.569      
0.722102      300.57       
0.723807      300.571      
0.725512      300.572      
0.727217      300.574      
0.728922      300.575      
0.730627      300.576      
0.732331      300.577      
0.734036      300.578      
0.735741      300.58       
0.737446      300.581      
0.739151      300.582      
0.740856      300.583      
0.742561      300.585      
0.744266      300.586      
0.745971      300.587      
0.747675      300.588      
0.74938       300.59       
0.751085      300.591      
0.75279       300.592      
0.754495      300.593      
0.7562        300.595      
0.757905      300.596      
0.75961       300.597      
0.761315      300.598      
0.76302       300.599      
0.764724      300.601      
0.766429      300.602      
0.768134      300.603      
0.769839      300.604      
0.771544      300.606      
0.773249      300.607      
0.774954      300.608      
0.776659      300.609      
0.778364      300.611      
0.780068      300.612      
0.781773      300.613      
0.783478      300.614      
0.785183      300.615      
0.786888      300.617      
0.788593      300.618      
0.790298      300.619      
0.792003      300.62       
0.793708      300.622      
0.795413      300.623      
0.797117      300.624      
0.798822      300.625      
0.800527      300.626      
0.802232      300.628      
0.803937      300.629      
0.805642      300.63       
0.807347      300.631      
0.809052      300.633      
0.810757      300.634      
0.812462      300.635      
0.814166      300.636      
0.815871      300.637      
0.817576      300.639      
0.819281      300.64       
0.820986      300.641      
0.822691      300.642      
0.824396      300.644      
0.826101      300.645      
0.827806      300.646      
0.82951       300.647      
0.831215      300.648      
0.83292       300.65       
0.834625      300.651      
0.83633       300.652      
0.838035      300.653      
0.83974       300.655      
0.841445      300.656      
0.84315       300.657      
0.844855      300.658      
0.846559      300.659      
0.848264      300.661      
0.849969      300.662      
0.851674      300.663      
0.853379      300.664      
0.855084      300.665      
0.856789      300.667      
0.858494      300.668      
0.860199      300.669      
0.861903      300.67       
0.863608      300.671      
0.865313      300.673      
0.867018      300.674      
0.868723      300.675      
0.870428      300.676      
0.872133      300.678      
0.873838      300.679      
0.875543      300.68       
0.877248      300.681      
0.878952      300.682      
0.880657      300.684      
0.882362      300.685      
0.884067      300.686      
0.885772      300.687      
0.887477      300.688      
0.889182      300.69       
0.890887      300.691      
0.892592      300.692      
0.894296      300.693      
0.896001      300.694      
0.897706      300.696      
0.899411      300.697      
0.901116      300.698      
0.902821      300.699      
0.904526      300.7        
0.906231      300.702      
0.907936      300.703      
0.909641      300.704      
0.911345      300.705      
0.91305       300.706      
0.914755      300.708      
0.91646       300.709      
0.918165      300.71       
0.91987       300.711      
0.921575      300.712      
0.92328       300.714      
0.924985      300.715      
0.926689      300.716      
0.928394      300.717      
0.930099      300.718      
0.931804      300.72       
0.933509      300.721      
0.935214      300.722      
0.936919      300.723      
0.938624      300.724      
0.940329      300.726      
0.942034      300.727      
0.943738      300.728      
0.945443      300.729      
0.947148      300.73       
0.948853      300.732      
0.950558      300.733      
0.952263      300.734      
0.953968      300.735      
0.955673      300.736      
0.957378      300.738      
0.959083      300.739      
0.960787      300.74       
0.962492      300.741      
0.964197      300.742      
0.965902      300.744      
0.967607      300.745      
0.969312      300.746      
0.971017      300.747      
0.972722      300.748      
0.974427      300.749      
0.976131      300.751      
0.977836      300.752      
0.979541      300.753      
0.981246      300.754      
0.982951      300.755      
0.984656      300.757      
0.986361      300.758      
0.988066      300.759      
0.989771      300.76       
0.991476      300.761      
0.99318       300.763      
0.994885      300.764      
0.99659       300.765      
0.998295      300.766      
1             300.767      
1.0017        300.768      
1.00341       300.77       
1.00511       300.771      
1.00681       300.772      
1.00852       300.773      
1.01022       300.774      
1.01193       300.776      
1.01363       300.777      
1.01533       300.778      
1.01704       300.779      
1.01874       300.78       
1.02044       300.781      
1.02215       300.783      
1.02385       300.784      
1.02555       300.785      
1.02726       300.786      
1.02896       300.787      
1.03066       300.789      
1.03237       300.79       
1.03407       300.791      
1.03578       300.792      
1.03748       300.793      
1.03918       300.794      
1.04089       300.796      
1.04259       300.797      
1.04429       300.798      
1.046         300.799      
1.0477        300.8        
1.0494        300.801      
1.05111       300.803      
1.05281       300.804      
1.05451       300.805      
1.05622       300.806      
1.05792       300.807      
1.05963       300.809      
1.06133       300.81       
1.06303       300.811      
1.06474       300.812      
1.06644       300.813      
1.06814       300.814      
1.06985       300.816      
1.07155       300.817      
1.07325       300.818      
1.07496       300.819      
1.07666       300.82       
1.07836       300.821      
1.08007       300.823      
1.08177       300.824      
1.08348       300.825      
1.08518       300.826      
1.08688       300.827      
1.08859       300.828      
1.09029       300.83       
1.09199       300.831      
1.0937        300.832      
1.0954        300.833      
1.0971        300.834      
1.09881       300.835      
1.10051       300.837      
1.10221       300.838      
1.10392       300.839      
1.10562       300.84       
1.10733       300.841      
1.10903       300.842      
1.11073       300.844      
1.11244       300.845      
1.11414       300.846      
1.11584       300.847      
1.11755       300.848      
1.11925       300.849      
1.12095       300.851      
1.12266       300.852      
1.12436       300.853      
1.12606       300.854      
1.12777       300.855      
1.12947       300.856      
1.13118       300.858      
1.13288       300.859      
1.13458       300.86       
1.13629       300.861      
1.13799       300.862      
1.13969       300.863      
1.1414        300.864      
1.1431        300.866      
1.1448        300.867      
1.14651       300.868      
1.14821       300.869      
1.14991       300.87       
1.15162       300.871      
1.15332       300.873      
1.15503       300.874      
1.15673       300.875      
1.15843       300.876      
1.16014       300.877      
1.16184       300.878      
1.16354       300.88       
1.16525       300.881      
1.16695       300.882      
1.16865       300.883      
1.17036       300.884      
1.17206       300.885      
1.17376       300.886      
1.17547       300.888      
1.17717       300.889      
1.17888       300.89       
1.18058       300.891      
1.18228       300.892      
1.18399       300.893      
1.18569       300.894      
1.18739       300.896      
1.1891        300.897      
1.1908        300.898      
1.1925        300.899      
1.19421       300.9        
1.19591       300.901      
1.19761       300.903      
1.19932       300.904      
1.20102       300.905      
1.20273       300.906      
1.20443       300.907      
1.20613       300.908      
1.20784       300.909      
1.20954       300.911      
1.21124       300.912      
1.21295       300.913      
1.21465       300.914      
1.21635       300.915      
1.21806       300.916      
1.21976       300.917      
1.22147       300.919      
1.22317       300.92       
1.22487       300.921      
1.22658       300.922      
1.22828       300.923      
1.22998       300.924      
1.23169       300.925      
1.23339       300.927      
1.23509       300.928      
1.2368        300.929      
1.2385        300.93       
1.2402        300.931      
1.24191       300.932      
1.24361       300.933      
1.24532       300.935      
1.24702       300.936      
1.24872       300.937      
1.25043       300.938      
1.25213       300.939      
1.25383       300.94       
1.25554       300.941      
1.25724       300.943      
1.25894       300.944      
1.26065       300.945      
1.26235       300.946      
1.26405       300.947      
1.26576       300.948      
1.26746       300.949      
1.26917       300.951      
1.27087       300.952      
1.27257       300.953      
1.27428       300.954      
1.27598       300.955      
1.27768       300.956      
1.27939       300.957      
1.28109       300.959      
1.28279       300.96       
1.2845        300.961      
1.2862        300.962      
1.2879        300.963      
1.28961       300.964      
1.29131       300.965      
1.29302       300.966      
1.29472       300.968      
1.29642       300.969      
1.29813       300.97       
1.29983       300.971      
1.30153       300.972      
1.30324       300.973      
1.30494       300.974      
1.30664       300.976      
1.30835       300.977      
1.31005       300.978      
1.31175       300.979      
1.31346       300.98       
1.31516       300.981      
1.31687       300.982      
1.31857       300.983      
1.32027       300.985      
1.32198       300.986      
1.32368       300.987      
1.32538       300.988      
1.32709       300.989      
1.32879       300.99       
1.33049       300.991      
1.3322        300.992      
1.3339        300.994      
1.3356        300.995      
1.33731       300.996      
1.33901       300.997      
1.34072       300.998      
1.34242       300.999      
1.34412       301          
1.34583       301.001      
1.34753       301.003      
1.34923       301.004      
1.35094       301.005      
1.35264       301.006      
1.35434       301.007      
1.35605       301.008      
1.35775       301.009      
1.35945       301.01       
1.36116       301.012      
1.36286       301.013      
1.36457       301.014      
1.36627       301.015      
1.36797       301.016      
1.36968       301.017      
1.37138       301.018      
1.37308       301.019      
1.37479       301.021      
1.37649       301.022      
1.37819       301.023      
1.3799        301.024      
1.3816        301.025      
1.3833        301.026      
1.38501       301.027      
1.38671       301.028      
1.38842       301.029      
1.39012       301.031      
1.39182       301.032      
1.39353       301.033      
1.39523       301.034      
1.39693       301.035      
1.39864       301.036      
1.40034       301.037      
1.40204       301.038      
1.40375       301.04       
1.40545       301.041      
1.40716       301.042      
1.40886       301.043      
1.41056       301.044      
1.41227       301.045      
1.41397       301.046      
1.41567       301.047      
1.41738       301.048      
1.41908       301.05       
1.42078       301.051      
1.42249       301.052      
1.42419       301.053      
1.42589       301.054      
1.4276        301.055      
1.4293        301.056      
1.43101       301.057      
1.43271       301.058      
1.43441       301.06       
1.43612       301.061      
1.43782       301.062      
1.43952       301.063      
1.44123       301.064      
1.44293       301.065      
1.44463       301.066      
1.44634       301.067      
1.44804       301.068      
1.44974       301.07       
1.45145       301.071      
1.45315       301.072      
1.45486       301.073      
1.45656       301.074      
1.45826       301.075      
1.45997       301.076      
1.46167       301.077      
1.46337       301.078      
1.46508       301.08       
1.46678       301.081      
1.46848       301.082      
1.47019       301.083      
1.47189       301.084      
1.47359       301.085      
1.4753        301.086      
1.477         301.087      
1.47871       301.088      
1.48041       301.089      
1.48211       301.091      
1.48382       301.092      
1.48552       301.093      
1.48722       301.094      
1.48893       301.095      
1.49063       301.096      
1.49233       301.097      
1.49404       301.098      
1.49574       301.099      
1.49744       301.101      
1.49915       301.102      
1.50085       301.103      
1.50256       301.104      
1.50426       301.105      
1.50596       301.106      
1.50767       301.107      
1.50937       301.108      
1.51107       301.109      
1.51278       301.11       
1.51448       301.112      
1.51618       301.113      
1.51789       301.114      
1.51959       301.115      
1.52129       301.116      
1.523         301.117      
1.5247        301.118      
1.52641       301.119      
1.52811       301.12       
1.52981       301.121      
1.53152       301.122      
1.53322       301.124      
1.53492       301.125      
1.53663       301.126      
1.53833       301.127      
1.54003       301.128      
1.54174       301.129      
1.54344       301.13       
1.54514       301.131      
1.54685       301.132      
1.54855       301.133      
1.55026       301.135      
1.55196       301.136      
1.55366       301.137      
1.55537       301.138      
1.55707       301.139      
1.55877       301.14       
1.56048       301.141      
1.56218       301.142      
1.56388       301.143      
1.56559       301.144      
1.56729       301.145      
1.56899       301.147      
1.5707        301.148      
1.5724        301.149      
1.57411       301.15       
1.57581       301.151      
1.57751       301.152      
1.57922       301.153      
1.58092       301.154      
1.58262       301.155      
1.58433       301.156      
1.58603       301.157      
1.58773       301.159      
1.58944       301.16       
1.59114       301.161      
1.59284       301.162      
1.59455       301.163      
1.59625       301.164      
1.59796       301.165      
1.59966       301.166      
1.60136       301.167      
1.60307       301.168      
1.60477       301.169      
1.60647       301.17       
1.60818       301.172      
1.60988       301.173      
1.61158       301.174      
1.61329       301.175      
1.61499       301.176      
1.6167        301.177      
1.6184        301.178      
1.6201        301.179      
1.62181       301.18       
1.62351       301.181      
1.62521       301.182      
1.62692       301.183      
1.62862       301.185      
1.63032       301.186      
1.63203       301.187      
1.63373       301.188      
1.63543       301.189      
1.63714       301.19       
1.63884       301.191      
1.64055       301.192      
1.64225       301.193      
1.64395       301.194      
1.64566       301.195      
1.64736       301.196      
1.64906       301.198      
1.65077       301.199      
1.65247       301.2        
1.65417       301.201      
1.65588       301.202      
1.65758       301.203      
1.65928       301.204      
1.66099       301.205      
1.66269       301.206      
1.6644        301.207      
1.6661        301.208      
1.6678        301.209      
1.66951       301.21       
1.67121       301.212      
1.67291       301.213      
1.67462       301.214      
1.67632       301.215      
1.67802       301.216      
1.67973       301.217      
1.68143       301.218      
1.68313       301.219      
1.68484       301.22       
1.68654       301.221      
1.68825       301.222      
1.68995       301.223      
1.69165       301.224      
1.69336       301.226      
1.69506       301.227      
1.69676       301.228      
1.69847       301.229      
1.70017       301.23       
1.70187       301.231      
1.70358       301.232      
1.70528       301.233      
1.70698       301.234      
1.70869       301.235      
1.71039       301.236      
1.7121        301.237      
1.7138        301.238      
1.7155        301.239      
1.71721       301.241      
1.71891       301.242      
1.72061       301.243      
1.72232       301.244      
1.72402       301.245      
1.72572       301.246      
1.72743       301.247      
1.72913       301.248      
1.73083       301.249      
1.73254       301.25       
1.73424       301.251      
1.73595       301.252      
1.73765       301.253      
1.73935       301.254      
1.74106       301.255      
1.74276       301.257      
1.74446       301.258      
1.74617       301.259      
1.74787       301.26       
1.74957       301.261      
1.75128       301.262      
1.75298       301.263      
1.75468       301.264      
1.75639       301.265      
1.75809       301.266      
1.7598        301.267      
1.7615        301.268      
1.7632        301.269      
1.76491       301.27       
1.76661       301.271      
1.76831       301.272      
1.77002       301.274      
1.77172       301.275      
1.77342       301.276      
1.77513       301.277      
1.77683       301.278      
1.77853       301.279      
1.78024       301.28       
1.78194       301.281      
1.78365       301.282      
1.78535       301.283      
1.78705       301.284      
1.78876       301.285      
1.79046       301.286      
1.79216       301.287      
1.79387       301.288      
1.79557       301.289      
1.79727       301.291      
1.79898       301.292      
1.80068       301.293      
1.80239       301.294      
1.80409       301.295      
1.80579       301.296      
1.8075        301.297      
1.8092        301.298      
1.8109        301.299      
1.81261       301.3        
1.81431       301.301      
1.81601       301.302      
1.81772       301.303      
1.81942       301.304      